          ******************************************************
          *      GAMESS VERSION = 30 JUN 2019 R1 Patch 1       *
          *             FROM IOWA STATE UNIVERSITY             *
          * M.W.SCHMIDT, K.K.BALDRIDGE, J.A.BOATZ, S.T.ELBERT, *
          *   M.S.GORDON, J.H.JENSEN, S.KOSEKI, N.MATSUNAGA,   *
          *          K.A.NGUYEN, S.J.SU, T.L.WINDUS,           *
          *       TOGETHER WITH M.DUPUIS, J.A.MONTGOMERY       *
          *         J.COMPUT.CHEM.  14, 1347-1363(1993)        *
          *************** 64 BIT WINDOWS VERSION ***************

  SINCE 1993, STUDENTS AND POSTDOCS WORKING AT IOWA STATE UNIVERSITY
  AND ALSO IN THEIR VARIOUS JOBS AFTER LEAVING ISU HAVE MADE IMPORTANT
  CONTRIBUTIONS TO THE CODE:
     IVANA ADAMOVIC, CHRISTINE AIKENS, YURI ALEXEEV, POOJA ARORA,
     ANDREY ASADCHEV, ROB BELL, PRADIPTA BANDYOPADHYAY, JONATHAN BENTZ,
     COLLEEN BERTONI, BRETT BODE, KURT BRORSEN, CALEB CARLIN, GALINA CHABAN,
     WEI CHEN, CHEOL HO CHOI, PAUL DAY, ALBERT DEFUSCO, NUWAN DESILVA,
     TIM DUDLEY, DMITRI FEDOROV, ALEX FINDLATER, GRAHAM FLETCHER, 
     MARK FREITAG, KURT GLAESEMANN, ANASTASIA GUNINA,
     DAN KEMP, GRANT MERRILL, NORIYUKI MINEZAWA, JONATHAN MULLIN,
     TAKESHI NAGATA, SEAN NEDD, HEATHER NETZLOFF, BOSILJKA NJEGIC, RYAN OLSON,
     MIKE PAK, BUU PHAM,
     SPENCER PRUITT, LUKE ROSKOP, JIM SHOEMAKER, LYUDMILA SLIPCHENKO,
     TONY SMITH, SAROM SOK LEANG, JIE SONG, TETSUYA TAKETSUGU, SIMON WEBB,
     PENG XU, SOOHAENG YOO, FEDERICO ZAHARIEV

  ADDITIONAL CODE HAS BEEN PROVIDED BY COLLABORATORS IN OTHER GROUPS:
     IOWA STATE UNIVERSITY:
          JOE IVANIC, AARON WEST, LAIMUTIS BYTAUTAS, KLAUS RUEDENBERG
     UNIVERSITY OF TOKYO: KIMIHIKO HIRAO, TAKAHITO NAKAJIMA,
          TAKAO TSUNEDA, MUNEAKI KAMIYA, SUSUMU YANAGISAWA,
          KIYOSHI YAGI, MAHITO CHIBA, SEIKEN TOKURA, NAOAKI KAWAKAMI
     UNIVERSITY OF AARHUS: FRANK JENSEN
     UNIVERSITY OF IOWA: VISVALDAS KAIRYS, HUI LI
     NATIONAL INST. OF STANDARDS AND TECHNOLOGY: WALT STEVENS, DAVID GARMER
     UNIVERSITY OF PISA: BENEDETTA MENNUCCI, JACOPO TOMASI
     UNIVERSITY OF MEMPHIS: HENRY KURTZ, PRAKASHAN KORAMBATH
     UNIVERSITY OF ALBERTA: TOBY ZENG, MARIUSZ KLOBUKOWSKI
     UNIVERSITY OF NEW ENGLAND: MARK SPACKMAN
     MIE UNIVERSITY: HIROAKI UMEDA
     NAT. INST. OF ADVANCED INDUSTRIAL SCIENCE AND TECHNOLOGY: KAZUO KITAURA
     MICHIGAN STATE UNIVERSITY:
          KAROL KOWALSKI, MARTA WLOCH, JEFFREY GOUR, JESSE LUTZ,
          WEI LI, JUN SHEN, J. EMILIANO DEUSTUA, PIOTR PIECUCH
     UNIVERSITY OF MINNESOTA:
          YINAN SHU
     UNIVERSITY OF SILESIA: MONIKA MUSIAL, STANISLAW KUCHARSKI
     FACULTES UNIVERSITAIRES NOTRE-DAME DE LA PAIX:
          OLIVIER QUINET, BENOIT CHAMPAGNE
     UNIVERSITY OF CALIFORNIA - SANTA BARBARA: BERNARD KIRTMAN
     INSTITUTE FOR MOLECULAR SCIENCE:
          KAZUYA ISHIMURA, MICHIO KATOUDA, AND SHIGERU NAGASE
     UNIVERSITY OF NOTRE DAME: ANNA POMOGAEVA, DAN CHIPMAN
     KYUSHU UNIVERSITY:
          HARUYUKI NAKANO,
          FENG LONG GU, JACEK KORCHOWIEC, MARCIN MAKOWSKI, AND YURIKO AOKI,
          HIROTOSHI MORI AND EISAKU MIYOSHI
     PENNSYLVANIA STATE UNIVERSITY:
          TZVETELIN IORDANOV, CHET SWALINA, JONATHAN SKONE,
          SHARON HAMMES-SCHIFFER
     WASEDA UNIVERSITY:
          MASATO KOBAYASHI, TOMOKO AKAMA, TSUGUKI TOUMA,
          TAKESHI YOSHIKAWA, YASUHIRO IKABATA, JUNJI SEINO,
          YUYA NAKAJIMA, HIROMI NAKAI
     NANJING UNIVERSITY: SHUHUA LI
     UNIVERSITY OF NEBRASKA:
          PEIFENG SU, DEJUN SI, NANDUN THELLAMUREGE, YALI WANG, HUI LI
     UNIVERSITY OF ZURICH: ROBERTO PEVERATI, KIM BALDRIDGE
     N. COPERNICUS UNIVERSITY AND JACKSON STATE UNIVERSITY:
          MARIA BARYSZ
     UNIVERSITY OF COPENHAGEN: Jimmy Kromann, CASPER STEINMANN
     TOKYO INSTITUTE OF TECHNOLOGY: HIROYA NAKATA
     NAGOYA UNIVERSITY: YOSHIO NISHIMOTO, STEPHAN IRLE
     MOSCOW STATE UNIVERSITY: VLADIMIR MIRONOV
     A.N.NESMEYANOV INSTITUTE OF ORGANOELEMENT COMPOUNDS OF RUSSIAN ACADEMY OF SCIENCES:
          IGOR S. GERASIMOV

 EXECUTION OF GAMESS BEGUN Fri Apr  3 13:14:07 2020

            ECHO OF THE FIRST FEW INPUT CARDS -
 INPUT CARD>!   File created by the GAMESS Input Deck Generator Plugin for Avogadro         
 INPUT CARD> $BASIS GBASIS=N31 NGAUSS=6 $END                                                
 INPUT CARD> $CONTRL SCFTYP=RHF RUNTYP=OPTIMIZE DFTTYP=B3LYP $END                           
 INPUT CARD> $STATPT HSSEND=.TRUE. $END                                                     
 INPUT CARD> $FORCE METHOD=SEMINUM $END                                                     
 INPUT CARD>                                                                                
 INPUT CARD> $DATA                                                                          
 INPUT CARD>Title                                                                           
 INPUT CARD>C1                                                                              
 INPUT CARD>F     9.0     2.73410     0.00000     0.00000                                   
 INPUT CARD>F     9.0    -2.73430    -0.00020     0.00000                                   
 INPUT CARD>C     6.0     1.39490     0.00000    -0.00000                                   
 INPUT CARD>C     6.0    -1.39490     0.00000    -0.00000                                   
 INPUT CARD>C     6.0     0.69750    -1.20800     0.00000                                   
 INPUT CARD>C     6.0    -0.69730    -1.20800    -0.00000                                   
 INPUT CARD>C     6.0     0.69750     1.20800    -0.00000                                   
 INPUT CARD>C     6.0    -0.69750     1.20810    -0.00000                                   
 INPUT CARD>H     1.0     1.24090    -2.14830     0.00000                                   
 INPUT CARD>H     1.0    -1.24050    -2.14830    -0.00000                                   
 INPUT CARD>H     1.0     1.24080     2.14830     0.00000                                   
 INPUT CARD>H     1.0    -1.24070     2.14850     0.00000                                   
 INPUT CARD> $END                                                                           
    1000000 WORDS OF MEMORY AVAILABLE

     BASIS OPTIONS
     -------------
     GBASIS=N31          IGAUSS=       6      POLAR=NONE    
     NDFUNC=       0     NFFUNC=       0     DIFFSP=       F
     NPFUNC=       0      DIFFS=       F     BASNAM=        


     RUN TITLE
     ---------
 Title                                                                           

 THE POINT GROUP OF THE MOLECULE IS C1      
 THE ORDER OF THE PRINCIPAL AXIS IS     0

 ATOM      ATOMIC                      COORDINATES (BOHR)
           CHARGE         X                   Y                   Z
 F           9.0     5.1666998230        0.0000000000        0.0000000000
 F           9.0    -5.1670777682       -0.0003779452        0.0000000000
 C           6.0     2.6359787803        0.0000000000       -0.0000000000
 C           6.0    -2.6359787803        0.0000000000       -0.0000000000
 C           6.0     1.3180838764       -2.2827889932        0.0000000000
 C           6.0    -1.3177059312       -2.2827889932       -0.0000000000
 C           6.0     1.3180838764        2.2827889932       -0.0000000000
 C           6.0    -1.3180838764        2.2829779658       -0.0000000000
 H           1.0     2.3449609782       -4.0596983394        0.0000000000
 H           1.0    -2.3442050878       -4.0596983394       -0.0000000000
 H           1.0     2.3447720056        4.0596983394        0.0000000000
 H           1.0    -2.3445830330        4.0600762846        0.0000000000

          INTERNUCLEAR DISTANCES (ANGS.)
          ------------------------------

                1 F          2 F          3 C          4 C          5 C     

   1 F       0.0000000    5.4684000    1.3392000 *  4.1290000    2.3679112 *
   2 F       5.4684000    0.0000000    4.1292000    1.3394000 *  3.6381358  
   3 C       1.3392000 *  4.1292000    0.0000000    2.7898000 *  1.3948587 *
   4 C       4.1290000    1.3394000 *  2.7898000 *  0.0000000    2.4160716 *
   5 C       2.3679112 *  3.6381358    1.3948587 *  2.4160716 *  0.0000000  
   6 C       3.6378249    2.3681533 *  2.4158984 *  1.3949587 *  1.3948000 *
   7 C       2.3679112 *  3.6382686    1.3948587 *  2.4160716 *  2.4160000 *
   8 C       3.6380468    2.3682363 *  2.4161216 *  1.3949453 *  2.7899040 *
   9 H       2.6162643 *  4.5184675    2.1538126 *  3.4003874    1.0860238 *
  10 H       4.5180348    2.6164426 *  3.4000774    2.1538413 *  2.1540678 *
  11 H       2.6163214 *  4.5185697    2.1538198 *  3.4003099    3.3999889  
  12 H       4.5183058    2.6168211 *  3.4003587    2.1540264 *  3.8759143  

                6 C          7 C          8 C          9 H         10 H     

   1 F       3.6378249    2.3679112 *  3.6380468    2.6162643 *  4.5180348  
   2 F       2.3681533 *  3.6382686    2.3682363 *  4.5184675    2.6164426 *
   3 C       2.4158984 *  1.3948587 *  2.4161216 *  2.1538126 *  3.4000774  
   4 C       1.3949587 *  2.4160716 *  1.3949453 *  3.4003874    2.1538413 *
   5 C       1.3948000 *  2.4160000 *  2.7899040 *  1.0860238 *  2.1540678 *
   6 C       0.0000000    2.7897174 *  2.4161000 *  2.1542477 *  1.0859237 *
   7 C       2.7897174 *  0.0000000    1.3950000 *  3.4000049    3.8756411  
   8 C       2.4161000 *  1.3950000 *  0.0000000    3.8759277    3.4000397  
   9 H       2.1542477 *  3.4000049    3.8759277    0.0000000    2.4814000 *
  10 H       1.0859237 *  3.8756411    3.4000397    2.4814000 *  0.0000000  
  11 H       3.8756911    1.0859737 *  2.1542941 *  4.2966000    4.9616148  
  12 H       3.4002023    2.1543350 *  1.0860103 *  4.9619380    4.2968000  

               11 H         12 H     

   1 F       2.6163214 *  4.5183058  
   2 F       4.5185697    2.6168211 *
   3 C       2.1538198 *  3.4003587  
   4 C       3.4003099    2.1540264 *
   5 C       3.3999889    3.8759143  
   6 C       3.8756911    3.4002023  
   7 C       1.0859737 *  2.1543350 *
   8 C       2.1542941 *  1.0860103 *
   9 H       4.2966000    4.9619380  
  10 H       4.9616148    4.2968000  
  11 H       0.0000000    2.4815000 *
  12 H       2.4815000 *  0.0000000  

  * ... LESS THAN  3.000


     ATOMIC BASIS SET
     ----------------
 THE CONTRACTED PRIMITIVE FUNCTIONS HAVE BEEN UNNORMALIZED
 THE CONTRACTED BASIS FUNCTIONS ARE NOW NORMALIZED TO UNITY

  SHELL TYPE  PRIMITIVE        EXPONENT          CONTRACTION COEFFICIENT(S)

 F         

      1   S       1          7001.7130900    0.001819616901
      1   S       2          1051.3660900    0.013916079607
      1   S       3           239.2856900    0.068405324535
      1   S       4            67.3974453    0.233185760119
      1   S       5            21.5199573    0.471267439240
      1   S       6             7.4031013    0.356618546182

      2   L       7            20.8479528   -0.108506975109    0.071628724237
      2   L       8             4.8083083   -0.146451658147    0.345912102697
      2   L       9             1.3440699    1.128688581135    0.722469956367

      3   L      10             0.3581514    1.000000000000    1.000000000000

 F         

      4   S      11          7001.7130900    0.001819616901
      4   S      12          1051.3660900    0.013916079607
      4   S      13           239.2856900    0.068405324535
      4   S      14            67.3974453    0.233185760119
      4   S      15            21.5199573    0.471267439240
      4   S      16             7.4031013    0.356618546182

      5   L      17            20.8479528   -0.108506975109    0.071628724237
      5   L      18             4.8083083   -0.146451658147    0.345912102697
      5   L      19             1.3440699    1.128688581135    0.722469956367

      6   L      20             0.3581514    1.000000000000    1.000000000000

 C         

      7   S      21          3047.5248800    0.001834737132
      7   S      22           457.3695180    0.014037322813
      7   S      23           103.9486850    0.068842622264
      7   S      24            29.2101553    0.232184443216
      7   S      25             9.2866630    0.467941348435
      7   S      26             3.1639270    0.362311985337

      8   L      27             7.8682723   -0.119332419775    0.068999066591
      8   L      28             1.8812885   -0.160854151696    0.316423960957
      8   L      29             0.5442493    1.143456437840    0.744308290898

      9   L      30             0.1687145    1.000000000000    1.000000000000

 C         

     10   S      31          3047.5248800    0.001834737132
     10   S      32           457.3695180    0.014037322813
     10   S      33           103.9486850    0.068842622264
     10   S      34            29.2101553    0.232184443216
     10   S      35             9.2866630    0.467941348435
     10   S      36             3.1639270    0.362311985337

     11   L      37             7.8682723   -0.119332419775    0.068999066591
     11   L      38             1.8812885   -0.160854151696    0.316423960957
     11   L      39             0.5442493    1.143456437840    0.744308290898

     12   L      40             0.1687145    1.000000000000    1.000000000000

 C         

     13   S      41          3047.5248800    0.001834737132
     13   S      42           457.3695180    0.014037322813
     13   S      43           103.9486850    0.068842622264
     13   S      44            29.2101553    0.232184443216
     13   S      45             9.2866630    0.467941348435
     13   S      46             3.1639270    0.362311985337

     14   L      47             7.8682723   -0.119332419775    0.068999066591
     14   L      48             1.8812885   -0.160854151696    0.316423960957
     14   L      49             0.5442493    1.143456437840    0.744308290898

     15   L      50             0.1687145    1.000000000000    1.000000000000

 C         

     16   S      51          3047.5248800    0.001834737132
     16   S      52           457.3695180    0.014037322813
     16   S      53           103.9486850    0.068842622264
     16   S      54            29.2101553    0.232184443216
     16   S      55             9.2866630    0.467941348435
     16   S      56             3.1639270    0.362311985337

     17   L      57             7.8682723   -0.119332419775    0.068999066591
     17   L      58             1.8812885   -0.160854151696    0.316423960957
     17   L      59             0.5442493    1.143456437840    0.744308290898

     18   L      60             0.1687145    1.000000000000    1.000000000000

 C         

     19   S      61          3047.5248800    0.001834737132
     19   S      62           457.3695180    0.014037322813
     19   S      63           103.9486850    0.068842622264
     19   S      64            29.2101553    0.232184443216
     19   S      65             9.2866630    0.467941348435
     19   S      66             3.1639270    0.362311985337

     20   L      67             7.8682723   -0.119332419775    0.068999066591
     20   L      68             1.8812885   -0.160854151696    0.316423960957
     20   L      69             0.5442493    1.143456437840    0.744308290898

     21   L      70             0.1687145    1.000000000000    1.000000000000

 C         

     22   S      71          3047.5248800    0.001834737132
     22   S      72           457.3695180    0.014037322813
     22   S      73           103.9486850    0.068842622264
     22   S      74            29.2101553    0.232184443216
     22   S      75             9.2866630    0.467941348435
     22   S      76             3.1639270    0.362311985337

     23   L      77             7.8682723   -0.119332419775    0.068999066591
     23   L      78             1.8812885   -0.160854151696    0.316423960957
     23   L      79             0.5442493    1.143456437840    0.744308290898

     24   L      80             0.1687145    1.000000000000    1.000000000000

 H         

     25   S      81            18.7311370    0.033494604338
     25   S      82             2.8253944    0.234726953484
     25   S      83             0.6401217    0.813757326146

     26   S      84             0.1612778    1.000000000000

 H         

     27   S      85            18.7311370    0.033494604338
     27   S      86             2.8253944    0.234726953484
     27   S      87             0.6401217    0.813757326146

     28   S      88             0.1612778    1.000000000000

 H         

     29   S      89            18.7311370    0.033494604338
     29   S      90             2.8253944    0.234726953484
     29   S      91             0.6401217    0.813757326146

     30   S      92             0.1612778    1.000000000000

 H         

     31   S      93            18.7311370    0.033494604338
     31   S      94             2.8253944    0.234726953484
     31   S      95             0.6401217    0.813757326146

     32   S      96             0.1612778    1.000000000000

 TOTAL NUMBER OF BASIS SET SHELLS             =   32
 NUMBER OF CARTESIAN GAUSSIAN BASIS FUNCTIONS =   80
 NUMBER OF ELECTRONS                          =   58
 CHARGE OF MOLECULE                           =    0
 SPIN MULTIPLICITY                            =    1
 NUMBER OF OCCUPIED ORBITALS (ALPHA)          =   29
 NUMBER OF OCCUPIED ORBITALS (BETA )          =   29
 TOTAL NUMBER OF ATOMS                        =   12
 THE NUCLEAR REPULSION ENERGY IS      340.3940276019

 SELECTED MURRAY-HANDY-LAMING RADIAL GRID

 LEGACY BECKE'S FUZZY CELL METHOD

 SELECTED ORIGINAL BECKE'S PARTITION FUNCTION

     LEBEDEV GRID-BASED DFT OPTIONS
     ------------------------------
     DFTTYP=B3LYP   
     NRAD  =      96     NLEB  =     302
     NRAD0 =      24     NLEB0 =     110
     SWOFF =    5.00E-03 (PURE SCF -> DFT)
     SWITCH=    3.00E-04 (COARSE -> TIGHT GRID)
     THRESH=    0.00E+00 GTHRE=    1.00E+00

 GRIMME'S EMPIRICAL DISPERSION CORRECTION= F

     $CONTRL OPTIONS
     ---------------
 SCFTYP=RHF          RUNTYP=OPTIMIZE     EXETYP=RUN     
 MPLEVL=       0     CITYP =NONE         CCTYP =NONE         VBTYP =NONE    
 DFTTYP=B3LYP        TDDFT =NONE    
 MULT  =       1     ICHARG=       0     NZVAR =       0     COORD =UNIQUE  
 PP    =NONE         RELWFN=NONE         LOCAL =NONE         NUMGRD=       F
 ISPHER=      -1     NOSYM =       0     MAXIT =      30     UNITS =ANGS    
 PLTORB=       F     MOLPLT=       F     AIMPAC=       F     FRIEND=        
 NPRINT=       7     IREST =       0     GEOM  =INPUT   
 NORMF =       0     NORMP =       0     ITOL  =      20     ICUT  =       9
 INTTYP=BEST         GRDTYP=BEST         QMTTOL= 1.0E-06

     $SYSTEM OPTIONS
     ---------------
  REPLICATED MEMORY=     1000000 WORDS (ON EVERY NODE).
 DISTRIBUTED MEMDDI=           0 MILLION WORDS IN AGGREGATE,
 MEMDDI DISTRIBUTED OVER   1 PROCESSORS IS           0 WORDS/PROCESSOR.
 TOTAL MEMORY REQUESTED ON EACH PROCESSOR=     1000000 WORDS.
 TIMLIM=      525600.00 MINUTES, OR     365.0 DAYS.
 PARALL= F  BALTYP=  DLB     KDIAG=    0  COREFL= F
 MXSEQ2=     300 MXSEQ3=     150  mem10=         0

          ----------------
          PROPERTIES INPUT
          ----------------

     MOMENTS            FIELD           POTENTIAL          DENSITY
 IEMOM =       1   IEFLD =       0   IEPOT =       0   IEDEN =       0
 WHERE =COMASS     WHERE =NUCLEI     WHERE =NUCLEI     WHERE =NUCLEI  
 OUTPUT=BOTH       OUTPUT=BOTH       OUTPUT=BOTH       OUTPUT=BOTH    
 IEMINT=       0   IEFINT=       0                     IEDINT=       0
                                                       MORB  =       0
          EXTRAPOLATION IN EFFECT
          DIIS IN EFFECT
 ORBITAL PRINTING OPTION: NPREO=     1    80     2     1

     -------------------------------
     INTEGRAL TRANSFORMATION OPTIONS
     -------------------------------
     NWORD  =            0
     CUTOFF = 1.0E-09     MPTRAN =       0
     DIRTRF =       F     AOINTS =DUP     

          ----------------------
          INTEGRAL INPUT OPTIONS
          ----------------------
 NOPK  =       1 NORDER=       0 SCHWRZ=       T

     ------------------------------------------
     THE POINT GROUP IS C1 , NAXIS= 0, ORDER= 1
     ------------------------------------------

     DIMENSIONS OF THE SYMMETRY SUBSPACES ARE
 A   =   80

 ..... DONE SETTING UP THE RUN .....
 STEP CPU TIME =     0.30 TOTAL CPU TIME =          0.3 (      0.0 MIN)
 TOTAL WALL CLOCK TIME=          0.3 SECONDS, CPU UTILIZATION IS   100.00%


          -----------------------------
          STATIONARY POINT LOCATION RUN
          -----------------------------

 OBTAINING INITIAL HESSIAN, HESS=GUESS   
 CARTESIAN COORDINATE OPTIMIZATION USING BADGER'S RULE FORCE CONSTANT GUESS

          PARAMETERS CONTROLLING GEOMETRY SEARCH ARE
          METHOD =QA                  UPHESS =BFGS    
          NNEG   =         0          NFRZ   =         0
          NSTEP  =        50          IFOLOW =         1
          HESS   =GUESS               RESTAR =         F
          IHREP  =         0          HSSEND =         T
          NPRT   =         0          NPUN   =         0
          OPTTOL = 1.000E-04          RMIN   = 1.500E-03
          RMAX   = 1.000E-01          RLIM   = 7.000E-02
          DXMAX  = 3.000E-01          PURIFY =         F
          MOVIE  =         F          TRUPD  =         T
          TRMAX  = 5.000E-01          TRMIN  = 5.000E-02
          ITBMAT =         5          STPT   =         F
          STSTEP = 1.000E-02          PROJCT=          T

 BEGINNING GEOMETRY SEARCH POINT NSERCH=   0 ...

 COORDINATES OF ALL ATOMS ARE (ANGS)
   ATOM   CHARGE       X              Y              Z
 ------------------------------------------------------------
 F           9.0   2.7341000000   0.0000000000   0.0000000000
 F           9.0  -2.7343000000  -0.0002000000   0.0000000000
 C           6.0   1.3949000000   0.0000000000  -0.0000000000
 C           6.0  -1.3949000000   0.0000000000  -0.0000000000
 C           6.0   0.6975000000  -1.2080000000   0.0000000000
 C           6.0  -0.6973000000  -1.2080000000  -0.0000000000
 C           6.0   0.6975000000   1.2080000000  -0.0000000000
 C           6.0  -0.6975000000   1.2081000000  -0.0000000000
 H           1.0   1.2409000000  -2.1483000000   0.0000000000
 H           1.0  -1.2405000000  -2.1483000000  -0.0000000000
 H           1.0   1.2408000000   2.1483000000   0.0000000000
 H           1.0  -1.2407000000   2.1485000000   0.0000000000

          ********************
          1 ELECTRON INTEGRALS
          ********************
 ...... END OF ONE-ELECTRON INTEGRALS ......
 STEP CPU TIME =     0.36 TOTAL CPU TIME =          0.7 (      0.0 MIN)
 TOTAL WALL CLOCK TIME=          0.7 SECONDS, CPU UTILIZATION IS   100.00%

          -------------
          GUESS OPTIONS
          -------------
          GUESS =HUCKEL            NORB  =       0          NORDER=       0
          MIX   =       F          PRTMO =       F          PUNMO =       F
          TOLZ  = 1.0E-08          TOLE  = 1.0E-05
          SYMDEN=       F          PURIFY=       F

 INITIAL GUESS ORBITALS GENERATED BY HUCKEL   ROUTINE.
 HUCKEL GUESS REQUIRES     63372 WORDS.

 SYMMETRIES FOR INITIAL GUESS ORBITALS FOLLOW.   BOTH SET(S).
    29 ORBITALS ARE OCCUPIED (    8 CORE ORBITALS).
     9=A       10=A       11=A       12=A       13=A       14=A       15=A   
    16=A       17=A       18=A       19=A       20=A       21=A       22=A   
    23=A       24=A       25=A       26=A       27=A       28=A       29=A   
    30=A       31=A       32=A       33=A       34=A       35=A       36=A   
    37=A       38=A       39=A   
 ...... END OF INITIAL ORBITAL SELECTION ......
 STEP CPU TIME =     0.29 TOTAL CPU TIME =          1.0 (      0.0 MIN)
 TOTAL WALL CLOCK TIME=          1.0 SECONDS, CPU UTILIZATION IS   100.00%

                    ----------------------
                    AO INTEGRAL TECHNOLOGY
                    ----------------------
     S,P,L SHELL ROTATED AXIS INTEGRALS, REPROGRAMMED BY
        KAZUYA ISHIMURA (IMS) AND JOSE SIERRA (SYNSTAR).
     S,P,D,L SHELL ROTATED AXIS INTEGRALS PROGRAMMED BY
        KAZUYA ISHIMURA (INSTITUTE FOR MOLECULAR SCIENCE).
     S,P,D,F,G SHELL TO TOTAL QUARTET ANGULAR MOMENTUM SUM 5,
        ERIC PROGRAM BY GRAHAM FLETCHER (ELORET AND NASA ADVANCED
        SUPERCOMPUTING DIVISION, AMES RESEARCH CENTER).
     S,P,D,F,G,L SHELL GENERAL RYS QUADRATURE PROGRAMMED BY
        MICHEL DUPUIS (PACIFIC NORTHWEST NATIONAL LABORATORY).

          --------------------
          2 ELECTRON INTEGRALS
          --------------------

 THE -PK- OPTION IS OFF, THE INTEGRALS ARE NOT IN SUPERMATRIX FORM.
 STORING   15000 INTEGRALS/RECORD ON DISK, USING 12 BYTES/INTEGRAL.
 TWO ELECTRON INTEGRAL EVALUATION REQUIRES   89884 WORDS OF MEMORY.
 SCHWARZ INEQUALITY OVERHEAD:      3166 INTEGRALS, T=        0.01
 II,JST,KST,LST =  1  1  1  1 NREC =         1 INTLOC =    1
 II,JST,KST,LST =  2  1  1  1 NREC =         1 INTLOC =    2
 II,JST,KST,LST =  3  1  1  1 NREC =         1 INTLOC =   34
 II,JST,KST,LST =  4  1  1  1 NREC =         1 INTLOC =  214
 II,JST,KST,LST =  5  1  1  1 NREC =         1 INTLOC =  246
 II,JST,KST,LST =  6  1  1  1 NREC =         1 INTLOC =  612
 II,JST,KST,LST =  7  1  1  1 NREC =         1 INTLOC = 1578
 II,JST,KST,LST =  8  1  1  1 NREC =         1 INTLOC = 1992
 II,JST,KST,LST =  9  1  1  1 NREC =         1 INTLOC = 5035
 II,JST,KST,LST = 10  1  1  1 NREC =         1 INTLOC =12589
 II,JST,KST,LST = 11  1  1  1 NREC =         1 INTLOC =14443
 II,JST,KST,LST = 12  1  1  1 NREC =         2 INTLOC =11925
 II,JST,KST,LST = 13  1  1  1 NREC =         4 INTLOC = 4797
 II,JST,KST,LST = 14  1  1  1 NREC =         4 INTLOC =11814
 II,JST,KST,LST = 15  1  1  1 NREC =         7 INTLOC =11995
 II,JST,KST,LST = 16  1  1  1 NREC =        12 INTLOC = 8272
 II,JST,KST,LST = 17  1  1  1 NREC =        13 INTLOC = 9189
 II,JST,KST,LST = 18  1  1  1 NREC =        19 INTLOC =10332
 II,JST,KST,LST = 19  1  1  1 NREC =        28 INTLOC = 5654
 II,JST,KST,LST = 20  1  1  1 NREC =        30 INTLOC = 2652
 II,JST,KST,LST = 21  1  1  1 NREC =        40 INTLOC = 8911
 II,JST,KST,LST = 22  1  1  1 NREC =        54 INTLOC =13776
 II,JST,KST,LST = 23  1  1  1 NREC =        58 INTLOC =  524
 II,JST,KST,LST = 24  1  1  1 NREC =        74 INTLOC =14611
 II,JST,KST,LST = 25  1  1  1 NREC =        97 INTLOC = 5285
 II,JST,KST,LST = 26  1  1  1 NREC =       102 INTLOC = 9814
 II,JST,KST,LST = 27  1  1  1 NREC =       109 INTLOC = 9358
 II,JST,KST,LST = 28  1  1  1 NREC =       115 INTLOC = 7044
 II,JST,KST,LST = 29  1  1  1 NREC =       123 INTLOC = 1596
 II,JST,KST,LST = 30  1  1  1 NREC =       129 INTLOC = 3965
 II,JST,KST,LST = 31  1  1  1 NREC =       137 INTLOC = 8141
 II,JST,KST,LST = 32  1  1  1 NREC =       144 INTLOC = 4479
 SCHWARZ INEQUALITY TEST SKIPPED       38916 INTEGRAL BLOCKS.
 TOTAL NUMBER OF NONZERO TWO-ELECTRON INTEGRALS =             2284890
        153 INTEGRAL RECORDS WERE STORED ON DISK FILE  8.
  ...... END OF TWO-ELECTRON INTEGRALS .....
 STEP CPU TIME =     1.25 TOTAL CPU TIME =          2.2 (      0.0 MIN)
 TOTAL WALL CLOCK TIME=          2.2 SECONDS, CPU UTILIZATION IS   100.00%

          --------------------------
             R-B3LYP SCF CALCULATION
          --------------------------

     NUCLEAR ENERGY =       340.3940276019
     MAXIT =   30     NPUNCH=    2
     EXTRAP=T  DAMP=F  SHIFT=F  RSTRCT=F  DIIS=T  DEM=F  SOSCF=F
         DENSITY MATRIX CONVERGENCE THRESHOLD=  1.00E-05
     COARSE -> FINE DFT GRID SWITCH THRESHOLD=  3.00E-04 (SWITCH IN $DFT)
                   HF -> DFT SWITCH THRESHOLD=  5.00E-03 (SWOFF IN $DFT)
     MEMORY REQUIRED FOR RHF ITERS=    486864 WORDS.

 DFT CODE IS SWITCHING FROM THE FINE GRID NRAD= 96,  NLEB=  302
                      TO THE COARSE GRID NRAD0= 24, NLEB0=  110

     EXCHANGE FUNCTIONAL   =B88&HFX   
     CORRELATION FUNCTIONAL=LYP88&VWN5
     DFT THRESHOLD         =.115E-07
     GRID CHANGE THRESHOLD =.300E-03
 FOR AN EULER-MACLAURIN QUADRATURE USING  96 RADIAL POINTS:
 SMALLEST GAUSSIAN PRIMITIVE EXPONENT=        0.1612777588 OF TYPE -S-
 ON ATOM NUMBER   9 HAS RADIAL NORMALIZATION=  1.000000
  LARGEST GAUSSIAN PRIMITIVE EXPONENT=     7001.7130900000 OF TYPE -S-
 ON ATOM NUMBER   1 HAS RADIAL NORMALIZATION=  1.000000
 DFT IS SWITCHED OFF, PERFORMING PURE SCF UNTIL SWOFF THRESHOLD IS REACHED.

 ITER EX DEM     TOTAL ENERGY        E CHANGE  DENSITY CHANGE    DIIS ERROR
   1  0  0     -427.4172175625  -427.4172175625   0.352819278   0.582740373
          * * *   INITIATING DIIS PROCEDURE   * * *
   2  1  0     -428.2242250295    -0.8070074670   0.061667767   0.111522295
   3  2  0     -428.2614823402    -0.0372573107   0.029441833   0.040464851
   4  3  0     -428.2655942317    -0.0041118915   0.008627643   0.015538948
   5  4  0     -428.2663323578    -0.0007381261   0.001612018   0.002292867
 CONVERGED TO SWOFF, SO DFT CALCULATION IS NOW SWITCHED ON.
          * * *   INITIATING DIIS PROCEDURE   * * *
   6  5  0     -430.3690729093    -2.1027405515   0.151879636   0.081456796
   7  6  0     -430.3907548383    -0.0216819290   0.046474093   0.053381891
   8  7  0     -430.3935567312    -0.0028018929   0.029071907   0.048235637
   9  8  0     -430.3991159741    -0.0055592429   0.003923978   0.008191139
  10  9  0     -430.3992731557    -0.0001571817   0.000496805   0.000602366
  11 10  0     -430.3992746038    -0.0000014481   0.000243996   0.000331011
 DFT CODE IS SWITCHING BACK TO THE FINE GRID
          * * *   INITIATING DIIS PROCEDURE   * * *
  12 11  0     -430.4030494908    -0.0037748870   0.004350389   0.003613353
  13 12  0     -430.4030666359    -0.0000171451   0.001971214   0.002727072
  14 13  0     -430.4030797143    -0.0000130785   0.000664488   0.001188572
  15 14  0     -430.4030819900    -0.0000022757   0.000064824   0.000068604
  16 15  0     -430.4030820023    -0.0000000123   0.000037879   0.000052852
  17 16  0     -430.4030820120    -0.0000000096   0.000004972   0.000005609
  18 17  0     -430.4030820121    -0.0000000001   0.000001113   0.000001019

          -----------------
          DENSITY CONVERGED
          -----------------
     TIME TO FORM FOCK OPERATORS=      60.7 SECONDS (       3.4 SEC/ITER)
     TIME TO SOLVE SCF EQUATIONS=       1.7 SECONDS (       0.1 SEC/ITER)

 FINAL R-B3LYP ENERGY IS     -430.4030820121 AFTER  18 ITERATIONS
 DFT EXCHANGE + CORRELATION ENERGY =       -44.2729806869
 TOTAL ELECTRON NUMBER             =        58.0006027153

          ------------
          EIGENVECTORS
          ------------

                      1          2          3          4          5
                  -24.7064   -24.7064   -10.2796   -10.2796   -10.2079
                     A          A          A          A          A   
    1  F  1  S    0.963112   0.249773  -0.000048   0.000059  -0.000004
    2  F  1  S    0.027350   0.006942  -0.000852   0.000986  -0.000123
    3  F  1  X   -0.001651  -0.000437  -0.000054   0.000070   0.000021
    4  F  1  Y   -0.000000  -0.000000  -0.000000  -0.000000  -0.000029
    5  F  1  Z    0.000000  -0.000000  -0.000000   0.000000  -0.000000
    6  F  1  S   -0.016754  -0.003644   0.003243  -0.003423   0.000268
    7  F  1  X    0.003998   0.001006  -0.001283   0.002079  -0.000076
    8  F  1  Y    0.000000   0.000000   0.000000   0.000000   0.000021
    9  F  1  Z    0.000000  -0.000000  -0.000000   0.000000  -0.000000
   10  F  2  S   -0.249786   0.963109   0.000070   0.000030  -0.000004
   11  F  2  S   -0.007225   0.027275   0.001215   0.000470  -0.000130
   12  F  2  X   -0.000421   0.001655  -0.000080  -0.000036  -0.000020
   13  F  2  Y   -0.000000   0.000000  -0.000000  -0.000000  -0.000025
   14  F  2  Z    0.000000  -0.000000  -0.000000   0.000000  -0.000000
   15  F  2  S    0.004957  -0.016411  -0.004469  -0.001499   0.000295
   16  F  2  X    0.001064  -0.003983  -0.002108  -0.001233   0.000064
   17  F  2  Y    0.000000  -0.000001  -0.000000  -0.000000  -0.000006
   18  F  2  Z    0.000000  -0.000000  -0.000000   0.000000  -0.000000
   19  C  3  S    0.000129  -0.000013  -0.512647   0.853087  -0.001147
   20  C  3  S    0.001517  -0.000032  -0.019504   0.030991  -0.000893
   21  C  3  X    0.000281   0.000117  -0.000383   0.000771   0.000202
   22  C  3  Y    0.000000  -0.000000  -0.000000  -0.000000  -0.001005
   23  C  3  Z    0.000000  -0.000000  -0.000000   0.000000  -0.000000
   24  C  3  S   -0.006082   0.003351   0.028389  -0.029978   0.003423
   25  C  3  X    0.014537   0.000701  -0.012767   0.011757  -0.001202
   26  C  3  Y   -0.000001  -0.000001  -0.000000  -0.000001   0.003146
   27  C  3  Z    0.000000  -0.000000  -0.000000   0.000000  -0.000000
   28  C  4  S   -0.000074   0.000106   0.853169   0.512510  -0.001253
   29  C  4  S   -0.000765   0.001310   0.031770   0.018204  -0.000985
   30  C  4  X    0.000034  -0.000302  -0.000699  -0.000500  -0.000215
   31  C  4  Y    0.000000  -0.000000  -0.000000  -0.000000  -0.001032
   32  C  4  Z    0.000000  -0.000000  -0.000000   0.000000  -0.000000
   33  C  4  S    0.005882  -0.003693  -0.039137  -0.013142   0.004250
   34  C  4  X    0.006451  -0.013046  -0.016791  -0.004387   0.001548
   35  C  4  Y    0.000002  -0.000003  -0.000003  -0.000000   0.003397
   36  C  4  Z    0.000000  -0.000000  -0.000000   0.000000  -0.000000
   37  C  5  S   -0.000069   0.000023  -0.001451   0.002542  -0.280260
   38  C  5  S   -0.000599   0.000002   0.001563  -0.002084  -0.009851
   39  C  5  X    0.000091   0.000308   0.000483  -0.000092  -0.000248
   40  C  5  Y    0.000018  -0.000070   0.000450  -0.000794  -0.000368
   41  C  5  Z    0.000000  -0.000000  -0.000000   0.000000  -0.000000
   42  C  5  S    0.010990  -0.005440  -0.020555   0.012749   0.005580
   43  C  5  X   -0.006462   0.001173   0.004937  -0.001663   0.000456
   44  C  5  Y    0.006494  -0.000777  -0.010213   0.007909   0.001144
   45  C  5  Z    0.000000  -0.000000  -0.000000   0.000000  -0.000000
   46  C  6  S    0.000054  -0.000050   0.002471   0.001561  -0.281109
   47  C  6  S    0.000292  -0.000523  -0.002359  -0.001107  -0.009869
   48  C  6  X   -0.000224  -0.000229   0.000470  -0.000146   0.000254
   49  C  6  Y   -0.000070  -0.000018  -0.000770  -0.000490  -0.000373
   50  C  6  Z    0.000000  -0.000000  -0.000000   0.000000  -0.000000
   51  C  6  S   -0.010092   0.006964   0.024131   0.001608   0.005278
   52  C  6  X   -0.004164   0.005078   0.005139  -0.000850  -0.000618
   53  C  6  Y   -0.003832   0.005302   0.012730   0.002192   0.001011
   54  C  6  Z    0.000000  -0.000000  -0.000000   0.000000  -0.000000
   55  C  7  S   -0.000069   0.000023  -0.001451   0.002542   0.628525
   56  C  7  S   -0.000599   0.000002   0.001563  -0.002084   0.021510
   57  C  7  X    0.000091   0.000308   0.000483  -0.000092   0.000555
   58  C  7  Y   -0.000018   0.000070  -0.000450   0.000794  -0.000418
   59  C  7  Z    0.000000  -0.000000  -0.000000   0.000000  -0.000000
   60  C  7  S    0.010988  -0.005437  -0.020550   0.012750  -0.012722
   61  C  7  X   -0.006460   0.001172   0.004935  -0.001662  -0.001530
   62  C  7  Y   -0.006495   0.000775   0.010211  -0.007911   0.001990
   63  C  7  Z    0.000000  -0.000000  -0.000000   0.000000  -0.000000
   64  C  8  S    0.000054  -0.000050   0.002473   0.001562   0.661526
   65  C  8  S    0.000293  -0.000523  -0.002359  -0.001106   0.022810
   66  C  8  X   -0.000224  -0.000230   0.000470  -0.000146  -0.000510
   67  C  8  Y    0.000070   0.000018   0.000770   0.000490  -0.000444
   68  C  8  Z    0.000000  -0.000000  -0.000000   0.000000  -0.000000
   69  C  8  S   -0.010090   0.006965   0.024129   0.001609  -0.014650
   70  C  8  X   -0.004163   0.005076   0.005137  -0.000850   0.001178
   71  C  8  Y    0.003834  -0.005302  -0.012731  -0.002190   0.002521
   72  C  8  Z    0.000000  -0.000000  -0.000000   0.000000  -0.000000
   73  H  9  S    0.000537   0.000108  -0.000243   0.000191   0.000409
   74  H  9  S    0.002611   0.000190  -0.002367   0.002328  -0.000634
   75  H 10  S   -0.000166   0.000522   0.000304   0.000055   0.000405
   76  H 10  S   -0.001102   0.002375   0.003182   0.000946  -0.000672
   77  H 11  S    0.000537   0.000109  -0.000243   0.000191  -0.000837
   78  H 11  S    0.002611   0.000190  -0.002366   0.002328   0.002275
   79  H 12  S   -0.000166   0.000522   0.000304   0.000054  -0.000881
   80  H 12  S   -0.001103   0.002375   0.003183   0.000945   0.002280

                      6          7          8          9         10
                  -10.2079   -10.2074   -10.2074    -1.2355    -1.2353
                     A          A          A          A          A   
    1  F  1  S   -0.000011  -0.000006  -0.000003  -0.212688   0.068059
    2  F  1  S   -0.000320  -0.000185  -0.000082   0.447847  -0.142531
    3  F  1  X    0.000052  -0.000030  -0.000015  -0.112343   0.035849
    4  F  1  Y    0.000010   0.000048  -0.000105  -0.000000   0.000000
    5  F  1  Z   -0.000000   0.000000  -0.000000   0.000000   0.000000
    6  F  1  S    0.000707   0.000793   0.000359   0.516014  -0.168877
    7  F  1  X   -0.000181   0.000336   0.000159  -0.072282   0.024041
    8  F  1  Y    0.000002  -0.000338   0.000728  -0.000000  -0.000000
    9  F  1  Z   -0.000000   0.000000  -0.000000   0.000000   0.000000
   10  F  2  S   -0.000011   0.000006   0.000003  -0.067736  -0.212801
   11  F  2  S   -0.000324   0.000172   0.000085   0.143263   0.447638
   12  F  2  X   -0.000051  -0.000032  -0.000014   0.035843   0.112291
   13  F  2  Y    0.000011  -0.000049   0.000105   0.000005   0.000016
   14  F  2  Z   -0.000000   0.000000  -0.000000   0.000000   0.000000
   15  F  2  S    0.000723  -0.000765  -0.000366   0.161284   0.518470
   16  F  2  X    0.000174   0.000343   0.000157   0.022273   0.072838
   17  F  2  Y   -0.000008   0.000339  -0.000728   0.000003   0.000010
   18  F  2  Z   -0.000000   0.000000  -0.000000   0.000000   0.000000
   19  C  3  S   -0.003018  -0.003059  -0.001382  -0.064367   0.020272
   20  C  3  S   -0.002358  -0.002629  -0.001191   0.121422  -0.036646
   21  C  3  X    0.000526   0.000394   0.000176   0.109208  -0.036355
   22  C  3  Y    0.000406  -0.000347   0.000716  -0.000000   0.000000
   23  C  3  Z   -0.000000   0.000000  -0.000000   0.000000   0.000000
   24  C  3  S    0.009503   0.023429   0.010774   0.017854  -0.001192
   25  C  3  X   -0.003392  -0.009780  -0.004504  -0.061052   0.026531
   26  C  3  Y   -0.001331   0.003141  -0.006656   0.000002   0.000001
   27  C  3  Z   -0.000000   0.000000  -0.000000   0.000000   0.000000
   28  C  4  S   -0.003078   0.002937   0.001409  -0.020755  -0.064185
   29  C  4  S   -0.002412   0.002535   0.001213   0.040450   0.120156
   30  C  4  X   -0.000534   0.000373   0.000181  -0.033614  -0.110027
   31  C  4  Y    0.000396   0.000312  -0.000699  -0.000006  -0.000018
   32  C  4  Z   -0.000000   0.000000  -0.000000   0.000000   0.000000
   33  C  4  S    0.009990  -0.023041  -0.010863   0.009446   0.015307
   34  C  4  X    0.003596  -0.009641  -0.004538   0.013764   0.065119
   35  C  4  Y   -0.001245  -0.003028   0.006601   0.000004   0.000022
   36  C  4  Z   -0.000000   0.000000  -0.000000   0.000000   0.000000
   37  C  5  S    0.643378   0.242312   0.662817  -0.008291   0.001877
   38  C  5  S    0.021858   0.009857   0.026023   0.016841  -0.002746
   39  C  5  X    0.000517  -0.000490  -0.000854   0.008765  -0.004994
   40  C  5  Y    0.000235   0.000108   0.000554   0.009299  -0.001961
   41  C  5  Z   -0.000000   0.000000  -0.000000   0.000000   0.000000
   42  C  5  S   -0.014066  -0.021292  -0.036287  -0.012334   0.030273
   43  C  5  X   -0.001469   0.006013   0.005901   0.026499  -0.020828
   44  C  5  Y   -0.002089  -0.006879  -0.009641  -0.009521  -0.002749
   45  C  5  Z   -0.000000   0.000000  -0.000000   0.000000   0.000000
   46  C  6  S    0.647042  -0.240198  -0.659652  -0.003272  -0.007844
   47  C  6  S    0.022009  -0.009799  -0.025910   0.007521   0.015316
   48  C  6  X   -0.000508  -0.000490  -0.000857  -0.001007  -0.010035
   49  C  6  Y    0.000236  -0.000119  -0.000547   0.003787   0.008712
   50  C  6  Z   -0.000000   0.000000  -0.000000   0.000000   0.000000
   51  C  6  S   -0.014442   0.021209   0.036228   0.017477  -0.027608
   52  C  6  X    0.001352   0.006021   0.005906   0.001610  -0.033671
   53  C  6  Y   -0.002217   0.006878   0.009626  -0.007801  -0.006186
   54  C  6  Z   -0.000000   0.000000  -0.000000   0.000000   0.000000
   55  C  7  S    0.272857   0.678236  -0.247029  -0.008291   0.001877
   56  C  7  S    0.009015   0.026773  -0.009400   0.016840  -0.002747
   57  C  7  X    0.000214  -0.000956   0.000171   0.008765  -0.004993
   58  C  7  Y    0.000086  -0.000503   0.000271  -0.009299   0.001961
   59  C  7  Z   -0.000000   0.000000  -0.000000   0.000000   0.000000
   60  C  7  S   -0.006255  -0.041776   0.007208  -0.012333   0.030250
   61  C  7  X   -0.000759   0.008349   0.000817   0.026495  -0.020821
   62  C  7  Y    0.000707   0.011853  -0.000959   0.009527   0.002750
   63  C  7  Z   -0.000000   0.000000  -0.000000   0.000000   0.000000
   64  C  8  S    0.288197  -0.643838   0.235205  -0.003271  -0.007842
   65  C  8  S    0.009622  -0.025598   0.008995   0.007518   0.015314
   66  C  8  X   -0.000192  -0.000983   0.000180  -0.001006  -0.010031
   67  C  8  Y    0.000075   0.000486  -0.000264  -0.003788  -0.008713
   68  C  8  Z   -0.000000   0.000000  -0.000000   0.000000   0.000000
   69  C  8  S   -0.007194   0.041027  -0.006954   0.017468  -0.027614
   70  C  8  X    0.000573   0.008422   0.000791   0.001612  -0.033652
   71  C  8  Y    0.000973  -0.011737   0.000918   0.007796   0.006198
   72  C  8  Z   -0.000000   0.000000  -0.000000   0.000000   0.000000
   73  H  9  S   -0.000819  -0.000445  -0.000850   0.000524  -0.000855
   74  H  9  S    0.002649  -0.000719   0.000376  -0.004350  -0.001673
   75  H 10  S   -0.000827   0.000445   0.000846  -0.000395   0.000922
   76  H 10  S    0.002633   0.000749  -0.000373  -0.003900  -0.002584
   77  H 11  S   -0.000314  -0.000957   0.000213   0.000523  -0.000855
   78  H 11  S    0.001488  -0.000119  -0.000825  -0.004353  -0.001673
   79  H 12  S   -0.000335   0.000912  -0.000198  -0.000396   0.000920
   80  H 12  S    0.001485   0.000252   0.000782  -0.003898  -0.002587

                     11         12         13         14         15
                   -0.8796    -0.7753    -0.7588    -0.6484    -0.6233
                     A          A          A          A          A   
    1  F  1  S    0.030648  -0.000003  -0.048027  -0.000002  -0.045585
    2  F  1  S   -0.070016   0.000009   0.108345   0.000004   0.103861
    3  F  1  X   -0.026220   0.000006   0.094350   0.000006   0.213043
    4  F  1  Y   -0.000003   0.032443  -0.000010   0.101254   0.000015
    5  F  1  Z   -0.000000  -0.000000   0.000000  -0.000000  -0.000000
    6  F  1  S   -0.077165   0.000005   0.139844   0.000006   0.138014
    7  F  1  X   -0.017202   0.000004   0.051520   0.000004   0.128064
    8  F  1  Y    0.000001   0.014552  -0.000005   0.057888   0.000009
    9  F  1  Z   -0.000000  -0.000000   0.000000  -0.000000  -0.000000
   10  F  2  S    0.030632   0.000019   0.048013   0.000004  -0.045567
   11  F  2  S   -0.069981  -0.000043  -0.108315  -0.000008   0.103823
   12  F  2  X    0.026204   0.000029   0.094311   0.000028  -0.212909
   13  F  2  Y   -0.000001   0.032404   0.000001  -0.101136  -0.000011
   14  F  2  Z   -0.000000  -0.000000   0.000000  -0.000000  -0.000000
   15  F  2  S   -0.077116  -0.000050  -0.139796  -0.000015   0.137956
   16  F  2  X    0.017194   0.000019   0.051504   0.000015  -0.127991
   17  F  2  Y    0.000002   0.014537   0.000002  -0.057820  -0.000006
   18  F  2  Z   -0.000000  -0.000000   0.000000  -0.000000  -0.000000
   19  C  3  S   -0.085027   0.000009   0.121806   0.000004   0.092183
   20  C  3  S    0.171177  -0.000017  -0.256858  -0.000011  -0.204215
   21  C  3  X   -0.093127   0.000006   0.070940   0.000000  -0.053077
   22  C  3  Y   -0.000017   0.135442  -0.000040   0.238005   0.000030
   23  C  3  Z   -0.000000  -0.000000   0.000000  -0.000000  -0.000000
   24  C  3  S    0.099049  -0.000036  -0.217282   0.000013  -0.159016
   25  C  3  X   -0.029490   0.000020   0.049525  -0.000007   0.035771
   26  C  3  Y   -0.000016   0.022031  -0.000005   0.060117   0.000012
   27  C  3  Z   -0.000000  -0.000000   0.000000  -0.000000  -0.000000
   28  C  4  S   -0.085004  -0.000059  -0.121812   0.000004   0.092204
   29  C  4  S    0.171126   0.000121   0.256870  -0.000006  -0.204244
   30  C  4  X    0.093094   0.000031   0.070956   0.000012   0.052979
   31  C  4  Y   -0.000006   0.135377  -0.000029  -0.237908   0.000058
   32  C  4  Z   -0.000000  -0.000000   0.000000  -0.000000  -0.000000
   33  C  4  S    0.099055   0.000107   0.217300  -0.000031  -0.159194
   34  C  4  X    0.029503   0.000025   0.049522  -0.000005  -0.035797
   35  C  4  Y   -0.000009   0.021976  -0.000008  -0.060071   0.000007
   36  C  4  Z   -0.000000  -0.000000   0.000000  -0.000000  -0.000000
   37  C  5  S   -0.093715   0.112118   0.066670   0.082820  -0.047676
   38  C  5  S    0.181842  -0.225160  -0.137003  -0.170984   0.094536
   39  C  5  X   -0.036467   0.056663  -0.079989  -0.113132  -0.121262
   40  C  5  Y    0.059344   0.000111  -0.068509  -0.015862  -0.118122
   41  C  5  Z   -0.000000  -0.000000   0.000000  -0.000000  -0.000000
   42  C  5  S    0.104600  -0.157199  -0.063213  -0.112827   0.092830
   43  C  5  X   -0.003082   0.002222  -0.022184  -0.046760  -0.033363
   44  C  5  Y    0.004469   0.008041   0.028711   0.025894  -0.014189
   45  C  5  Z   -0.000000  -0.000000   0.000000  -0.000000  -0.000000
   46  C  6  S   -0.093704   0.112073  -0.066749  -0.082847  -0.047657
   47  C  6  S    0.181820  -0.225066   0.137164   0.171041   0.094488
   48  C  6  X    0.036476  -0.056718  -0.079954  -0.113058   0.121291
   49  C  6  Y    0.059316   0.000177   0.068484   0.015778  -0.118157
   50  C  6  Z   -0.000000  -0.000000   0.000000  -0.000000  -0.000000
   51  C  6  S    0.104579  -0.157216   0.063329   0.112896   0.092856
   52  C  6  X    0.003084  -0.002235  -0.022174  -0.046741   0.033387
   53  C  6  Y    0.004478   0.007978  -0.028715  -0.025898  -0.014125
   54  C  6  Z   -0.000000  -0.000000   0.000000  -0.000000  -0.000000
   55  C  7  S   -0.093677  -0.112100   0.066732  -0.082824  -0.047687
   56  C  7  S    0.181763   0.225123  -0.137130   0.170996   0.094559
   57  C  7  X   -0.036426  -0.056658  -0.079965   0.113125  -0.121206
   58  C  7  Y   -0.059333   0.000121   0.068505  -0.015841   0.118126
   59  C  7  Z   -0.000000  -0.000000   0.000000  -0.000000  -0.000000
   60  C  7  S    0.104593   0.157217  -0.063309   0.112825   0.092862
   61  C  7  X   -0.003084  -0.002247  -0.022181   0.046753  -0.033369
   62  C  7  Y   -0.004494   0.008003  -0.028714   0.025913   0.014173
   63  C  7  Z   -0.000000  -0.000000   0.000000  -0.000000  -0.000000
   64  C  8  S   -0.093660  -0.112119  -0.066696   0.082849  -0.047675
   65  C  8  S    0.181737   0.225164   0.137056  -0.171050   0.094529
   66  C  8  X    0.036442   0.056645  -0.079954   0.113032   0.121226
   67  C  8  Y   -0.059324   0.000076  -0.068505   0.015814   0.118133
   68  C  8  Z   -0.000000  -0.000000   0.000000  -0.000000  -0.000000
   69  C  8  S    0.104542   0.157250   0.063266  -0.112889   0.092900
   70  C  8  X    0.003071   0.002224  -0.022175   0.046735   0.033368
   71  C  8  Y   -0.004467   0.008001   0.028704  -0.025918   0.014137
   72  C  8  Z   -0.000000  -0.000000   0.000000  -0.000000  -0.000000
   73  H  9  S    0.034236  -0.065064  -0.037668  -0.083702   0.058924
   74  H  9  S    0.002632  -0.011961   0.006150  -0.022128   0.036934
   75  H 10  S    0.034241  -0.065055   0.037724   0.083741   0.058929
   76  H 10  S    0.002640  -0.011978  -0.006134   0.022144   0.036959
   77  H 11  S    0.034226   0.065063  -0.037708   0.083713   0.058956
   78  H 11  S    0.002640   0.011977   0.006142   0.022128   0.036960
   79  H 12  S    0.034216   0.065065   0.037678  -0.083717   0.058950
   80  H 12  S    0.002629   0.011970  -0.006144  -0.022127   0.036959

                     16         17         18         19         20
                   -0.5574    -0.5364    -0.5227    -0.4727    -0.4643
                     A          A          A          A          A   
    1  F  1  S   -0.033638  -0.040386   0.000005   0.000000  -0.006622
    2  F  1  S    0.073150   0.094473  -0.000013   0.000000   0.015458
    3  F  1  X    0.238114   0.366463  -0.000060   0.000000   0.087275
    4  F  1  Y    0.000007   0.000001   0.235319   0.000000   0.000056
    5  F  1  Z    0.000000   0.000000   0.000000   0.366312  -0.000000
    6  F  1  S    0.112768   0.100192  -0.000008   0.000000   0.014668
    7  F  1  X    0.139365   0.233941  -0.000040   0.000000   0.055627
    8  F  1  Y    0.000007  -0.000001   0.149194   0.000000   0.000035
    9  F  1  Z    0.000000   0.000000   0.000000   0.240375  -0.000000
   10  F  2  S   -0.033542   0.040464   0.000003   0.000000   0.006626
   11  F  2  S    0.072927  -0.094647  -0.000008   0.000000  -0.015466
   12  F  2  X   -0.237313   0.366973   0.000002   0.000000   0.087309
   13  F  2  Y   -0.000041   0.000084   0.235175   0.000000  -0.000075
   14  F  2  Z    0.000000   0.000000   0.000000   0.363697  -0.000000
   15  F  2  S    0.112519  -0.100468  -0.000007   0.000000  -0.014684
   16  F  2  X   -0.138873   0.234260   0.000002   0.000000   0.055652
   17  F  2  Y   -0.000022   0.000053   0.149096   0.000000  -0.000047
   18  F  2  Z    0.000000   0.000000   0.000000   0.238646  -0.000000
   19  C  3  S   -0.002162   0.022800  -0.000007   0.000000  -0.052832
   20  C  3  S   -0.002785  -0.049525   0.000014   0.000000   0.119012
   21  C  3  X   -0.203540  -0.230403   0.000027   0.000000  -0.153274
   22  C  3  Y    0.000006  -0.000001   0.247286   0.000000   0.000008
   23  C  3  Z    0.000000   0.000000   0.000000   0.195956  -0.000000
   24  C  3  S   -0.021456  -0.102847   0.000044   0.000000   0.155583
   25  C  3  X   -0.002633   0.082000  -0.000030   0.000000  -0.022978
   26  C  3  Y   -0.000020   0.000012   0.108227   0.000000   0.000032
   27  C  3  Z    0.000000   0.000000   0.000000   0.121914  -0.000000
   28  C  4  S   -0.002201  -0.022837  -0.000006   0.000000   0.052820
   29  C  4  S   -0.002696   0.049613   0.000011   0.000000  -0.118988
   30  C  4  X    0.203016  -0.230815  -0.000051   0.000000  -0.153279
   31  C  4  Y    0.000005  -0.000014   0.247348   0.000000  -0.000085
   32  C  4  Z    0.000000   0.000000   0.000000   0.194822  -0.000000
   33  C  4  S   -0.021255   0.103000   0.000015   0.000000  -0.155528
   34  C  4  X    0.002842   0.081942  -0.000006   0.000000  -0.022985
   35  C  4  Y   -0.000018   0.000040   0.108293   0.000000  -0.000025
   36  C  4  Z    0.000000   0.000000   0.000000   0.121170  -0.000000
   37  C  5  S    0.017904  -0.043807  -0.012482   0.000000   0.031894
   38  C  5  S   -0.042503   0.085586   0.026567   0.000000  -0.064481
   39  C  5  X   -0.046429   0.040846  -0.186865   0.000000  -0.057229
   40  C  5  Y    0.167871   0.001003  -0.108425   0.000000   0.200505
   41  C  5  Z    0.000000   0.000000   0.000000   0.096405  -0.000000
   42  C  5  S   -0.038662   0.216204   0.047616   0.000000  -0.054107
   43  C  5  X   -0.032426  -0.055751  -0.053335   0.000000  -0.064196
   44  C  5  Y    0.080272   0.050521  -0.023313   0.000000   0.056746
   45  C  5  Z    0.000000   0.000000   0.000000   0.037366  -0.000000
   46  C  6  S    0.017990   0.043785  -0.012438   0.000000  -0.031887
   47  C  6  S   -0.042671  -0.085533   0.026469   0.000000   0.064471
   48  C  6  X    0.046494   0.040659   0.186929   0.000000  -0.057178
   49  C  6  Y    0.167867  -0.001317  -0.108407   0.000000  -0.200374
   50  C  6  Z    0.000000   0.000000   0.000000   0.096135  -0.000000
   51  C  6  S   -0.039115  -0.216108   0.047509   0.000000   0.054079
   52  C  6  X    0.032278  -0.055842   0.053300   0.000000  -0.064182
   53  C  6  Y    0.080171  -0.050670  -0.023257   0.000000  -0.056697
   54  C  6  Z    0.000000   0.000000   0.000000   0.037303  -0.000000
   55  C  7  S    0.017900  -0.043807   0.012498   0.000000   0.031911
   56  C  7  S   -0.042501   0.085585  -0.026597   0.000000  -0.064512
   57  C  7  X   -0.046413   0.040861   0.186795   0.000000  -0.057155
   58  C  7  Y   -0.167853  -0.000988  -0.108477   0.000000  -0.200460
   59  C  7  Z    0.000000   0.000000   0.000000   0.096387  -0.000000
   60  C  7  S   -0.038610   0.216154  -0.047711   0.000000  -0.054254
   61  C  7  X   -0.032402  -0.055749   0.053342   0.000000  -0.064140
   62  C  7  Y   -0.080290  -0.050505  -0.023285   0.000000  -0.056678
   63  C  7  Z    0.000000   0.000000   0.000000   0.037360  -0.000000
   64  C  8  S    0.018005   0.043787   0.012435   0.000000  -0.031907
   65  C  8  S   -0.042700  -0.085532  -0.026465   0.000000   0.064503
   66  C  8  X    0.046489   0.040617  -0.186887   0.000000  -0.057280
   67  C  8  Y   -0.167825   0.001330  -0.108418   0.000000   0.200602
   68  C  8  Z    0.000000   0.000000   0.000000   0.096116  -0.000000
   69  C  8  S   -0.039120  -0.216129  -0.047508   0.000000   0.054213
   70  C  8  X    0.032262  -0.055835  -0.053292   0.000000  -0.064158
   71  C  8  Y   -0.080149   0.050693  -0.023260   0.000000   0.056751
   72  C  8  Z    0.000000   0.000000   0.000000   0.037293  -0.000000
   73  H  9  S   -0.096342   0.057195   0.013162   0.000000  -0.157358
   74  H  9  S   -0.035893   0.053142   0.004699   0.000000  -0.106165
   75  H 10  S   -0.096456  -0.056994   0.013107   0.000000   0.157275
   76  H 10  S   -0.035990  -0.053055   0.004678   0.000000   0.106092
   77  H 11  S   -0.096335   0.057206  -0.013233   0.000000  -0.157336
   78  H 11  S   -0.035883   0.053147  -0.004762   0.000000  -0.106153
   79  H 12  S   -0.096448  -0.056978  -0.013130   0.000000   0.157440
   80  H 12  S   -0.036004  -0.053047  -0.004701   0.000000   0.106232

                     21         22         23         24         25
                   -0.4610    -0.4468    -0.4344    -0.4268    -0.3806
                     A          A          A          A          A   
    1  F  1  S    0.000000   0.000008  -0.000001  -0.003280  -0.000000
    2  F  1  S    0.000000  -0.000021   0.000004   0.011452   0.000001
    3  F  1  X    0.000000  -0.000228   0.000084   0.229248  -0.000022
    4  F  1  Y    0.000000   0.036326   0.387034  -0.000067   0.409276
    5  F  1  Z   -0.411815  -0.000000  -0.000000  -0.000000   0.000000
    6  F  1  S    0.000000   0.000011  -0.000019  -0.031972   0.000005
    7  F  1  X    0.000000  -0.000161   0.000062   0.166620  -0.000017
    8  F  1  Y    0.000000   0.022756   0.247506  -0.000042   0.274663
    9  F  1  Z   -0.274128  -0.000000  -0.000000  -0.000000   0.000000
   10  F  2  S    0.000000   0.000002  -0.000003  -0.003293  -0.000000
   11  F  2  S    0.000000  -0.000008   0.000008   0.011483  -0.000000
   12  F  2  X    0.000000   0.000138  -0.000046  -0.229360  -0.000039
   13  F  2  Y    0.000000   0.035996  -0.387001   0.000243   0.409371
   14  F  2  Z    0.414115  -0.000000  -0.000000  -0.000000   0.000000
   15  F  2  S    0.000000   0.000019   0.000001  -0.031916   0.000009
   16  F  2  X    0.000000   0.000099  -0.000035  -0.166707  -0.000023
   17  F  2  Y    0.000000   0.022545  -0.247491   0.000154   0.274724
   18  F  2  Z    0.275645  -0.000000  -0.000000  -0.000000   0.000000
   19  C  3  S    0.000000   0.000039   0.000004  -0.027214   0.000003
   20  C  3  S    0.000000  -0.000083  -0.000007   0.062172  -0.000006
   21  C  3  X    0.000000   0.000170  -0.000019  -0.127860   0.000009
   22  C  3  Y    0.000000  -0.092647   0.098353  -0.000095  -0.149446
   23  C  3  Z   -0.172089  -0.000000  -0.000000  -0.000000   0.000000
   24  C  3  S    0.000000  -0.000128  -0.000061   0.047421  -0.000001
   25  C  3  X    0.000000  -0.000026   0.000058   0.059807  -0.000006
   26  C  3  Y    0.000000   0.050537   0.163544  -0.000017   0.099573
   27  C  3  Z   -0.117959  -0.000000  -0.000000  -0.000000   0.000000
   28  C  4  S    0.000000  -0.000001  -0.000024  -0.027214   0.000009
   29  C  4  S    0.000000   0.000007   0.000053   0.062169  -0.000022
   30  C  4  X    0.000000  -0.000041   0.000100   0.127921  -0.000002
   31  C  4  Y    0.000000  -0.092730  -0.098448  -0.000003  -0.149329
   32  C  4  Z    0.173326  -0.000000  -0.000000  -0.000000   0.000000
   33  C  4  S    0.000000   0.000018   0.000076   0.047433  -0.000026
   34  C  4  X    0.000000   0.000046   0.000032  -0.059762  -0.000005
   35  C  4  Y    0.000000   0.050384  -0.163567   0.000122   0.099609
   36  C  4  Z    0.118750  -0.000000  -0.000000  -0.000000   0.000000
   37  C  5  S    0.000000  -0.017496  -0.032429   0.005470  -0.009875
   38  C  5  S    0.000000   0.041839   0.056666  -0.015808   0.018333
   39  C  5  X    0.000000  -0.162125   0.033829   0.273482   0.172720
   40  C  5  Y    0.000000   0.218363  -0.102874  -0.018301   0.076164
   41  C  5  Z   -0.041392  -0.000000  -0.000000  -0.000000   0.000000
   42  C  5  S    0.000000   0.092622   0.233196   0.013124   0.123790
   43  C  5  X    0.000000  -0.022197  -0.010103   0.072053   0.083419
   44  C  5  Y    0.000000   0.087872   0.024913   0.016059   0.051140
   45  C  5  Z   -0.009761  -0.000000  -0.000000  -0.000000   0.000000
   46  C  6  S    0.000000  -0.017456   0.032439   0.005436  -0.009881
   47  C  6  S    0.000000   0.041765  -0.056698  -0.015743   0.018337
   48  C  6  X    0.000000   0.162168   0.033298  -0.273513  -0.172726
   49  C  6  Y    0.000000   0.218603   0.102758  -0.018390   0.076024
   50  C  6  Z    0.042034  -0.000000  -0.000000  -0.000000   0.000000
   51  C  6  S    0.000000   0.092394  -0.233163   0.013325   0.123825
   52  C  6  X    0.000000   0.022207  -0.010256  -0.072040  -0.083408
   53  C  6  Y    0.000000   0.087862  -0.024929   0.016096   0.051126
   54  C  6  Z    0.010024  -0.000000  -0.000000  -0.000000   0.000000
   55  C  7  S    0.000000   0.017478   0.032413   0.005478   0.009877
   56  C  7  S    0.000000  -0.041801  -0.056648  -0.015839  -0.018338
   57  C  7  X    0.000000   0.161776  -0.033564   0.273750  -0.172785
   58  C  7  Y    0.000000   0.218471  -0.102756   0.018677   0.076150
   59  C  7  Z   -0.041394  -0.000000  -0.000000  -0.000000   0.000000
   60  C  7  S    0.000000  -0.092612  -0.233015   0.013119  -0.123788
   61  C  7  X    0.000000   0.022157   0.010137   0.072099  -0.083450
   62  C  7  Y    0.000000   0.087905   0.024884  -0.015965   0.051142
   63  C  7  Z   -0.009760  -0.000000  -0.000000  -0.000000   0.000000
   64  C  8  S    0.000000   0.017458  -0.032419   0.005496   0.009874
   65  C  8  S    0.000000  -0.041766   0.056659  -0.015868  -0.018327
   66  C  8  X    0.000000  -0.161760  -0.033484  -0.273722   0.172785
   67  C  8  Y    0.000000   0.218438   0.102675   0.018613   0.076052
   68  C  8  Z    0.042040  -0.000000  -0.000000  -0.000000   0.000000
   69  C  8  S    0.000000  -0.092421   0.233030   0.012935  -0.123794
   70  C  8  X    0.000000  -0.022110   0.010170  -0.072103   0.083433
   71  C  8  Y    0.000000   0.087864  -0.024944  -0.015923   0.051138
   72  C  8  Z    0.010021  -0.000000  -0.000000  -0.000000   0.000000
   73  H  9  S    0.000000  -0.145625   0.105762   0.093738   0.023172
   74  H  9  S    0.000000  -0.124485   0.080083   0.088868   0.000731
   75  H 10  S    0.000000  -0.145816  -0.105548   0.093823   0.023257
   76  H 10  S    0.000000  -0.124629  -0.079886   0.088941   0.000823
   77  H 11  S    0.000000   0.145595  -0.105595   0.094016  -0.023199
   78  H 11  S    0.000000   0.124439  -0.079922   0.089113  -0.000758
   79  H 12  S    0.000000   0.145590   0.105541   0.093934  -0.023251
   80  H 12  S    0.000000   0.124432   0.079898   0.089052  -0.000831

                     26         27         28         29         30
                   -0.3571    -0.3520    -0.2735    -0.2455    -0.0195
                     A          A          A          A          A   
    1  F  1  S   -0.000000   0.000000   0.000000   0.000000   0.000000
    2  F  1  S   -0.000000   0.000000   0.000000   0.000000   0.000000
    3  F  1  X   -0.000000   0.000020   0.000000   0.000000   0.000000
    4  F  1  Y   -0.000000   0.251299   0.000000   0.000000   0.000000
    5  F  1  Z    0.278311  -0.000000  -0.000005   0.235692  -0.000011
    6  F  1  S   -0.000000  -0.000005   0.000000   0.000000   0.000000
    7  F  1  X   -0.000000   0.000015   0.000000   0.000000   0.000000
    8  F  1  Y   -0.000000   0.175653   0.000000   0.000000   0.000000
    9  F  1  Z    0.205996  -0.000000  -0.000005   0.187555  -0.000007
   10  F  2  S   -0.000000   0.000001   0.000000   0.000000   0.000000
   11  F  2  S   -0.000000  -0.000002   0.000000   0.000000   0.000000
   12  F  2  X   -0.000000   0.000039   0.000000   0.000000   0.000000
   13  F  2  Y   -0.000000  -0.251415   0.000000   0.000000   0.000000
   14  F  2  Z    0.278341  -0.000000  -0.000070  -0.235682   0.000040
   15  F  2  S   -0.000000  -0.000008   0.000000   0.000000   0.000000
   16  F  2  X   -0.000000   0.000026   0.000000   0.000000   0.000000
   17  F  2  Y   -0.000000  -0.175725   0.000000   0.000000   0.000000
   18  F  2  Z    0.206009  -0.000000  -0.000057  -0.187538   0.000034
   19  C  3  S   -0.000000  -0.000010   0.000000   0.000000   0.000000
   20  C  3  S   -0.000000   0.000024   0.000000   0.000000   0.000000
   21  C  3  X   -0.000000  -0.000022   0.000000   0.000000   0.000000
   22  C  3  Y   -0.000000  -0.253725   0.000000   0.000000   0.000000
   23  C  3  Z   -0.149432  -0.000000   0.000007  -0.327609   0.000024
   24  C  3  S   -0.000000   0.000019   0.000000   0.000000   0.000000
   25  C  3  X   -0.000000   0.000004   0.000000   0.000000   0.000000
   26  C  3  Y   -0.000000   0.013360   0.000000   0.000000   0.000000
   27  C  3  Z   -0.052858  -0.000000   0.000007  -0.182124   0.000008
   28  C  4  S   -0.000000   0.000004   0.000000   0.000000   0.000000
   29  C  4  S   -0.000000  -0.000009   0.000000   0.000000   0.000000
   30  C  4  X   -0.000000  -0.000043   0.000000   0.000000   0.000000
   31  C  4  Y   -0.000000   0.253741   0.000000   0.000000   0.000000
   32  C  4  Z   -0.149402  -0.000000   0.000092   0.327647  -0.000086
   33  C  4  S   -0.000000  -0.000020   0.000000   0.000000   0.000000
   34  C  4  X   -0.000000  -0.000012   0.000000   0.000000   0.000000
   35  C  4  Y   -0.000000  -0.013403   0.000000   0.000000   0.000000
   36  C  4  Z   -0.052832  -0.000000   0.000054   0.182152  -0.000079
   37  C  5  S   -0.000000  -0.015129   0.000000   0.000000   0.000000
   38  C  5  S   -0.000000   0.029215   0.000000   0.000000   0.000000
   39  C  5  X   -0.000000   0.028152   0.000000   0.000000   0.000000
   40  C  5  Y   -0.000000   0.215771   0.000000   0.000000   0.000000
   41  C  5  Z   -0.210022  -0.000000  -0.298654  -0.175943   0.321903
   42  C  5  S   -0.000000   0.144592   0.000000   0.000000   0.000000
   43  C  5  X   -0.000000  -0.006334   0.000000   0.000000   0.000000
   44  C  5  Y   -0.000000   0.114491   0.000000   0.000000   0.000000
   45  C  5  Z   -0.136141  -0.000000  -0.211707  -0.145801   0.430889
   46  C  6  S   -0.000000   0.015134   0.000000   0.000000   0.000000
   47  C  6  S   -0.000000  -0.029219   0.000000   0.000000   0.000000
   48  C  6  X   -0.000000   0.028169   0.000000   0.000000   0.000000
   49  C  6  Y   -0.000000  -0.215771   0.000000   0.000000   0.000000
   50  C  6  Z   -0.210002  -0.000000  -0.298607   0.176026  -0.321869
   51  C  6  S   -0.000000  -0.144656   0.000000   0.000000   0.000000
   52  C  6  X   -0.000000  -0.006304   0.000000   0.000000   0.000000
   53  C  6  Y   -0.000000  -0.114496   0.000000   0.000000   0.000000
   54  C  6  Z   -0.136139  -0.000000  -0.211665   0.145868  -0.430847
   55  C  7  S   -0.000000   0.015134   0.000000   0.000000   0.000000
   56  C  7  S   -0.000000  -0.029226   0.000000   0.000000   0.000000
   57  C  7  X   -0.000000  -0.028141   0.000000   0.000000   0.000000
   58  C  7  Y   -0.000000   0.215735   0.000000   0.000000   0.000000
   59  C  7  Z   -0.209929  -0.000000   0.298649  -0.176067  -0.321903
   60  C  7  S   -0.000000  -0.144569   0.000000   0.000000   0.000000
   61  C  7  X   -0.000000   0.006317   0.000000   0.000000   0.000000
   62  C  7  Y   -0.000000   0.114456   0.000000   0.000000   0.000000
   63  C  7  Z   -0.136095  -0.000000   0.211715  -0.145885  -0.430845
   64  C  8  S   -0.000000  -0.015134   0.000000   0.000000   0.000000
   65  C  8  S   -0.000000   0.029222   0.000000   0.000000   0.000000
   66  C  8  X   -0.000000  -0.028195   0.000000   0.000000   0.000000
   67  C  8  Y   -0.000000  -0.215747   0.000000   0.000000   0.000000
   68  C  8  Z   -0.209911  -0.000000   0.298693   0.175985   0.321938
   69  C  8  S   -0.000000   0.144617   0.000000   0.000000   0.000000
   70  C  8  X   -0.000000   0.006272   0.000000   0.000000   0.000000
   71  C  8  Y   -0.000000  -0.114485   0.000000   0.000000   0.000000
   72  C  8  Z   -0.136088  -0.000000   0.211742   0.145834   0.430881
   73  H  9  S   -0.000000  -0.122824   0.000000   0.000000   0.000000
   74  H  9  S   -0.000000  -0.126584   0.000000   0.000000   0.000000
   75  H 10  S   -0.000000   0.122816   0.000000   0.000000   0.000000
   76  H 10  S   -0.000000   0.126572   0.000000   0.000000   0.000000
   77  H 11  S   -0.000000   0.122795   0.000000   0.000000   0.000000
   78  H 11  S   -0.000000   0.126556   0.000000   0.000000   0.000000
   79  H 12  S   -0.000000  -0.122792   0.000000   0.000000   0.000000
   80  H 12  S   -0.000000  -0.126550   0.000000   0.000000   0.000000

                     31         32         33         34         35
                   -0.0006     0.0790     0.1302     0.1385     0.1503
                     A          A          A          A          A   
    1  F  1  S   -0.000000  -0.024720  -0.000037   0.056866  -0.000000
    2  F  1  S   -0.000000   0.049917   0.000085  -0.119697  -0.000000
    3  F  1  X   -0.000000  -0.155770  -0.000208   0.255129  -0.000000
    4  F  1  Y   -0.000000   0.000010   0.006794  -0.000017  -0.000000
    5  F  1  Z   -0.159347  -0.000000   0.000000   0.000000   0.102392
    6  F  1  S   -0.000000   0.206856   0.000284  -0.515026  -0.000000
    7  F  1  X   -0.000000  -0.181530  -0.000256   0.350830  -0.000000
    8  F  1  Y   -0.000000   0.000013   0.005818  -0.000001  -0.000000
    9  F  1  Z   -0.155649  -0.000000   0.000000   0.000000   0.111924
   10  F  2  S   -0.000000  -0.024769   0.000040  -0.056923  -0.000000
   11  F  2  S   -0.000000   0.050024  -0.000086   0.119816  -0.000000
   12  F  2  X   -0.000000   0.156029  -0.000179   0.255414  -0.000000
   13  F  2  Y   -0.000000   0.000023   0.006771   0.000077  -0.000000
   14  F  2  Z   -0.159333  -0.000000   0.000000   0.000000  -0.102334
   15  F  2  S   -0.000000   0.207235  -0.000330   0.515490  -0.000000
   16  F  2  X   -0.000000   0.181841  -0.000241   0.351224  -0.000000
   17  F  2  Y   -0.000000   0.000022   0.005808   0.000072  -0.000000
   18  F  2  Z   -0.155619  -0.000000   0.000000   0.000000  -0.111842
   19  C  3  S   -0.000000   0.033995   0.000041  -0.046025  -0.000000
   20  C  3  S   -0.000000  -0.071920  -0.000026   0.071171  -0.000000
   21  C  3  X   -0.000000  -0.169166  -0.000282   0.347070  -0.000000
   22  C  3  Y   -0.000000  -0.000016   0.037242   0.000053  -0.000000
   23  C  3  Z    0.420788  -0.000000   0.000000   0.000000  -0.362434
   24  C  3  S   -0.000000  -0.223386  -0.000681   0.069402  -0.000000
   25  C  3  X   -0.000000  -0.148981  -0.000054   0.628793  -0.000000
   26  C  3  Y   -0.000000  -0.000083  -0.140293  -0.000208  -0.000000
   27  C  3  Z    0.460887  -0.000000   0.000000   0.000000  -0.491233
   28  C  4  S   -0.000000   0.034057  -0.000001   0.046163  -0.000000
   29  C  4  S   -0.000000  -0.072040  -0.000024  -0.071386  -0.000000
   30  C  4  X   -0.000000   0.169494  -0.000323   0.347364  -0.000000
   31  C  4  Y   -0.000000   0.000066   0.037275   0.000050  -0.000000
   32  C  4  Z    0.420846  -0.000000   0.000000   0.000000   0.362309
   33  C  4  S   -0.000000  -0.223526   0.000026  -0.071114  -0.000000
   34  C  4  X   -0.000000   0.149492  -0.000341   0.629195  -0.000000
   35  C  4  Y   -0.000000   0.000058  -0.140226  -0.000030  -0.000000
   36  C  4  Z    0.460934  -0.000000   0.000000   0.000000   0.491024
   37  C  5  S   -0.000000   0.040866   0.031916   0.024795  -0.000000
   38  C  5  S   -0.000000  -0.070894  -0.034701  -0.075600  -0.000000
   39  C  5  X   -0.000000  -0.029928  -0.088020   0.118688  -0.000000
   40  C  5  Y   -0.000000   0.115978   0.200886  -0.060142  -0.000000
   41  C  5  Z   -0.179019  -0.000000   0.000000   0.000000   0.292098
   42  C  5  S   -0.000000  -0.593547  -0.770182  -0.131238  -0.000000
   43  C  5  X   -0.000000  -0.208277  -0.328848   0.412126  -0.000000
   44  C  5  Y   -0.000000   0.280701   0.423386   0.102872  -0.000000
   45  C  5  Z   -0.234759  -0.000000   0.000000   0.000000   0.521326
   46  C  6  S   -0.000000   0.040806   0.031871  -0.024851  -0.000000
   47  C  6  S   -0.000000  -0.070753  -0.034623   0.075713  -0.000000
   48  C  6  X   -0.000000   0.029993   0.087764   0.118513  -0.000000
   49  C  6  Y   -0.000000   0.115969   0.200664   0.060389  -0.000000
   50  C  6  Z   -0.179165  -0.000000   0.000000   0.000000  -0.292058
   51  C  6  S   -0.000000  -0.593216  -0.770101   0.131562  -0.000000
   52  C  6  X   -0.000000   0.208366   0.327715   0.411979  -0.000000
   53  C  6  Y   -0.000000   0.280547   0.422631  -0.102388  -0.000000
   54  C  6  Z   -0.234911  -0.000000   0.000000   0.000000  -0.521213
   55  C  7  S   -0.000000   0.040848  -0.031905   0.024781  -0.000000
   56  C  7  S   -0.000000  -0.070862   0.034666  -0.075610  -0.000000
   57  C  7  X   -0.000000  -0.029944   0.087799   0.118940  -0.000000
   58  C  7  Y   -0.000000  -0.115937   0.200660   0.060493  -0.000000
   59  C  7  Z   -0.179094  -0.000000   0.000000   0.000000   0.292042
   60  C  7  S   -0.000000  -0.593324   0.770553  -0.130229  -0.000000
   61  C  7  X   -0.000000  -0.208178   0.327858   0.413051  -0.000000
   62  C  7  Y   -0.000000  -0.280737   0.422490  -0.102270  -0.000000
   63  C  7  Z   -0.234880  -0.000000   0.000000   0.000000   0.521150
   64  C  8  S   -0.000000   0.040827  -0.031917  -0.024943  -0.000000
   65  C  8  S   -0.000000  -0.070784   0.034680   0.075840  -0.000000
   66  C  8  X   -0.000000   0.029976  -0.088026   0.118440  -0.000000
   67  C  8  Y   -0.000000  -0.116014   0.200810  -0.060080  -0.000000
   68  C  8  Z   -0.179130  -0.000000   0.000000   0.000000  -0.292001
   69  C  8  S   -0.000000  -0.593333   0.770305   0.133272  -0.000000
   70  C  8  X   -0.000000   0.208330  -0.328783   0.411706  -0.000000
   71  C  8  Y   -0.000000  -0.280594   0.423090   0.103150  -0.000000
   72  C  8  Z   -0.234885  -0.000000   0.000000   0.000000  -0.521046
   73  H  9  S   -0.000000   0.092566   0.049321  -0.055988  -0.000000
   74  H  9  S   -0.000000   0.834295   1.062464  -0.234710  -0.000000
   75  H 10  S   -0.000000   0.092584   0.049161   0.056048  -0.000000
   76  H 10  S   -0.000000   0.834152   1.060852   0.234943  -0.000000
   77  H 11  S   -0.000000   0.092562  -0.049157  -0.056055  -0.000000
   78  H 11  S   -0.000000   0.834196  -1.060976  -0.236408  -0.000000
   79  H 12  S   -0.000000   0.092592  -0.049300   0.055976  -0.000000
   80  H 12  S   -0.000000   0.834214  -1.062208   0.233014  -0.000000

                     36         37         38         39         40
                    0.1592     0.1816     0.1975     0.2506     0.3296
                     A          A          A          A          A   
    1  F  1  S    0.020699  -0.000033   0.053403  -0.030964  -0.000018
    2  F  1  S   -0.032918   0.000067  -0.104048   0.053317   0.000025
    3  F  1  X    0.033776  -0.000108   0.213483  -0.021988  -0.000085
    4  F  1  Y   -0.000044  -0.069307  -0.000019  -0.000005  -0.074674
    5  F  1  Z    0.000000   0.000000   0.000000  -0.000000  -0.000000
    6  F  1  S   -0.281086   0.000342  -0.563676   0.417699   0.000249
    7  F  1  X    0.094762  -0.000184   0.353935  -0.131189  -0.000162
    8  F  1  Y   -0.000039  -0.036958  -0.000019  -0.000018  -0.204280
    9  F  1  Z    0.000000   0.000000   0.000000  -0.000000  -0.000000
   10  F  2  S   -0.020725   0.000005   0.053284  -0.030948   0.000009
   11  F  2  S    0.032968  -0.000012  -0.103824   0.053289  -0.000022
   12  F  2  X    0.033927   0.000006  -0.213177   0.021927  -0.000062
   13  F  2  Y    0.000033   0.069305  -0.000021   0.000003  -0.075618
   14  F  2  Z    0.000000   0.000000   0.000000  -0.000000  -0.000000
   15  F  2  S    0.281320  -0.000055  -0.562261   0.417500  -0.000066
   16  F  2  X    0.094988  -0.000007  -0.353310   0.131075  -0.000063
   17  F  2  Y    0.000033   0.036956  -0.000061  -0.000011  -0.204918
   18  F  2  Z    0.000000   0.000000   0.000000  -0.000000  -0.000000
   19  C  3  S   -0.029748   0.000039  -0.104628  -0.079274   0.000074
   20  C  3  S    0.104064  -0.000069   0.152075   0.132198  -0.000070
   21  C  3  X   -0.023474  -0.000118   0.195272  -0.220353  -0.000083
   22  C  3  Y    0.000053   0.102915   0.000038  -0.000017   0.458497
   23  C  3  Z    0.000000   0.000000   0.000000  -0.000000  -0.000000
   24  C  3  S   -0.764741   0.000157   1.469528   2.229313  -0.001866
   25  C  3  X    0.762877  -0.000577   0.409088  -1.425111   0.000101
   26  C  3  Y    0.000197   0.068973   0.000067   0.000055   1.933001
   27  C  3  Z    0.000000   0.000000   0.000000  -0.000000  -0.000000
   28  C  4  S    0.029832  -0.000008  -0.104611  -0.079351  -0.000057
   29  C  4  S   -0.104221   0.000030   0.151997   0.132134   0.000053
   30  C  4  X   -0.023397   0.000067  -0.194819   0.220279  -0.000142
   31  C  4  Y   -0.000071  -0.102982  -0.000027   0.000033   0.459144
   32  C  4  Z    0.000000   0.000000   0.000000  -0.000000  -0.000000
   33  C  4  S    0.763561  -0.000287   1.471573   2.231724   0.001692
   34  C  4  X    0.762929  -0.000189  -0.406489   1.425755   0.000161
   35  C  4  Y    0.000187  -0.069118   0.000020   0.000470   1.934089
   36  C  4  Z    0.000000   0.000000   0.000000  -0.000000  -0.000000
   37  C  5  S    0.062940  -0.065587   0.046815   0.034609  -0.047196
   38  C  5  S   -0.161067   0.108723  -0.076256  -0.013693   0.015800
   39  C  5  X   -0.057989   0.020817  -0.169704   0.063048   0.032717
   40  C  5  Y    0.094204  -0.146728  -0.021095  -0.111697   0.064731
   41  C  5  Z    0.000000   0.000000   0.000000  -0.000000  -0.000000
   42  C  5  S   -0.140718   1.042035  -0.774312  -1.006949   1.828148
   43  C  5  X   -0.430676   0.059221  -0.416183  -0.251248   0.934394
   44  C  5  Y    1.089691  -0.741523  -0.059548  -1.006651   0.757466
   45  C  5  Z    0.000000   0.000000   0.000000  -0.000000  -0.000000
   46  C  6  S   -0.063024   0.065603   0.046766   0.034637  -0.047720
   47  C  6  S    0.161187  -0.108743  -0.076035  -0.013708   0.016495
   48  C  6  X   -0.058187   0.020764   0.169963  -0.063068  -0.031165
   49  C  6  Y   -0.094395   0.146763  -0.021113  -0.111905   0.065701
   50  C  6  Z    0.000000   0.000000   0.000000  -0.000000  -0.000000
   51  C  6  S    0.142584  -1.042495  -0.774939  -1.007359   1.840330
   52  C  6  X   -0.431336   0.059255   0.416747   0.251073  -0.922340
   53  C  6  Y   -1.090068   0.741503  -0.061168  -1.008068   0.759810
   54  C  6  Z    0.000000   0.000000   0.000000  -0.000000  -0.000000
   55  C  7  S    0.063055   0.065519   0.046849   0.034612   0.047188
   56  C  7  S   -0.161207  -0.108557  -0.076311  -0.013651  -0.015703
   57  C  7  X   -0.058034  -0.020642  -0.169657   0.063169  -0.032380
   58  C  7  Y   -0.094530  -0.146661   0.021088   0.111839   0.064480
   59  C  7  Z    0.000000   0.000000   0.000000  -0.000000  -0.000000
   60  C  7  S   -0.143200  -1.041626  -0.774856  -1.007084  -1.828336
   61  C  7  X   -0.430787  -0.058889  -0.416045  -0.250756  -0.932531
   62  C  7  Y   -1.090602  -0.740359   0.059415   1.007116   0.756302
   63  C  7  Z    0.000000   0.000000   0.000000  -0.000000  -0.000000
   64  C  8  S   -0.063076  -0.065536   0.046741   0.034626   0.047721
   65  C  8  S    0.161279   0.108599  -0.076009  -0.013637  -0.016506
   66  C  8  X   -0.058088  -0.020751   0.169981  -0.063040   0.031454
   67  C  8  Y    0.094335   0.146683   0.021202   0.111893   0.065828
   68  C  8  Z    0.000000   0.000000   0.000000  -0.000000  -0.000000
   69  C  8  S    0.143109   1.041838  -0.774367  -1.007586  -1.839878
   70  C  8  X   -0.430635  -0.058962   0.416862   0.251577   0.923720
   71  C  8  Y    1.090219   0.740489   0.061576   1.008149   0.761299
   72  C  8  Z    0.000000   0.000000   0.000000  -0.000000  -0.000000
   73  H  9  S    0.042885  -0.023434  -0.056712   0.018532   0.106916
   74  H  9  S    1.299367  -1.200014   0.486562  -0.428948  -0.150459
   75  H 10  S   -0.042882   0.023430  -0.056594   0.018566   0.106965
   76  H 10  S   -1.301112   1.200338   0.486123  -0.430118  -0.145866
   77  H 11  S    0.042945   0.023433  -0.056717   0.018567  -0.106956
   78  H 11  S    1.301545   1.198715   0.486797  -0.429781   0.150372
   79  H 12  S   -0.042908  -0.023399  -0.056592   0.018597  -0.106899
   80  H 12  S   -1.301021  -1.199003   0.485541  -0.429925   0.145634

                     41         42         43         44         45
                    0.3327     0.3425     0.4901     0.4973     0.5400
                     A          A          A          A          A   
    1  F  1  S   -0.000063   0.018177   0.034615  -0.000000   0.000011
    2  F  1  S    0.000118  -0.033777  -0.023219  -0.000000  -0.000030
    3  F  1  X   -0.000389   0.144820  -0.110649  -0.000000   0.000014
    4  F  1  Y   -0.142816  -0.000407  -0.000083  -0.000000   0.004698
    5  F  1  Z    0.000000  -0.000000   0.000000   0.035827  -0.000000
    6  F  1  S    0.000679  -0.185004  -0.863090  -0.000000  -0.000133
    7  F  1  X   -0.000579   0.196838   0.220419  -0.000000   0.000080
    8  F  1  Y   -0.092171  -0.000383  -0.000171  -0.000000   0.197912
    9  F  1  Z    0.000000  -0.000000   0.000000   0.037039  -0.000000
   10  F  2  S    0.000063  -0.018145  -0.034622  -0.000000  -0.000001
   11  F  2  S   -0.000116   0.033739   0.023255  -0.000000  -0.000016
   12  F  2  X   -0.000379   0.144722  -0.110500  -0.000000  -0.000010
   13  F  2  Y    0.142340   0.000325   0.000105  -0.000000  -0.007403
   14  F  2  Z    0.000000  -0.000000   0.000000   0.035809  -0.000000
   15  F  2  S   -0.000712   0.184460   0.862875  -0.000000   0.000121
   16  F  2  X   -0.000566   0.196530   0.220562  -0.000000   0.000057
   17  F  2  Y    0.090768   0.000149   0.000168  -0.000000  -0.198757
   18  F  2  Z    0.000000  -0.000000   0.000000   0.037022  -0.000000
   19  C  3  S    0.000282  -0.118076   0.054459  -0.000000   0.000000
   20  C  3  S   -0.000252   0.118321  -0.367396  -0.000000  -0.000399
   21  C  3  X   -0.000469   0.151138  -0.025982  -0.000000   0.000197
   22  C  3  Y    0.082350   0.000517   0.000172  -0.000000  -0.622974
   23  C  3  Z    0.000000  -0.000000   0.000000   0.424874  -0.000000
   24  C  3  S   -0.007567   3.344659  -2.294190  -0.000000   0.000467
   25  C  3  X    0.001172  -0.716044   2.710331  -0.000000   0.000100
   26  C  3  Y    0.080468   0.001742   0.001671  -0.000000  -2.603429
   27  C  3  Z    0.000000  -0.000000   0.000000  -0.373421  -0.000000
   28  C  4  S   -0.000252   0.117976  -0.054453  -0.000000   0.000014
[...]
 10   H            X -0.14990727  0.00000000 -0.00000000  0.11725084 -0.00000000
                   Y  0.02860577  0.00000000 -0.00000000  0.07245625  0.00000000
                   Z -0.00000000 -0.44354151  0.38955964  0.00000000  0.43435550
 11   H            X -0.14991177 -0.00000000  0.00000000 -0.11725460 -0.00000000
                   Y  0.02860449 -0.00000000  0.00000000 -0.07245187  0.00000000
                   Z  0.00000000  0.44368740  0.38950138 -0.00000000 -0.43444409
 12   H            X -0.14990843  0.00000000 -0.00000000  0.11725800 -0.00000000
                   Y -0.02861100 -0.00000000  0.00000000 -0.07244960 -0.00000000
                   Z  0.00000000  0.44366438  0.38941576 -0.00000000  0.43453090

 TRANS. SAYVETZ    X  0.00027984 -0.00000000  0.00000000  0.00000056  0.00000000
                   Y -0.00000114  0.00000000 -0.00000000  0.00000142  0.00000000
                   Z -0.00000000 -0.00001490  0.00005443  0.00000000  0.00001081
               TOTAL  0.00027984  0.00001490  0.00005443  0.00000152  0.00001081

   ROT. SAYVETZ    X -0.00000000 -0.01822294  0.00010366 -0.00000000 -0.00002552
                   Y  0.00000000  0.00008354  0.00002779 -0.00000000 -0.00681091
                   Z -0.00002814 -0.00000000 -0.00000000 -0.00000188  0.00000000
               TOTAL  0.00002814  0.01822313  0.00010732  0.00000188  0.00681096

                           21          22          23          24          25
       FREQUENCY:       987.51     1046.44     1132.09     1193.39     1243.31  
        SYMMETRY:         A           A           A           A           A   
    REDUCED MASS:      1.34525     2.52972     1.27337     1.12136     2.89587
    IR INTENSITY:      0.00000     0.06099     0.28011     0.00000     2.83445

  1   F            X -0.00000000 -0.00104253 -0.00000046 -0.01316281 -0.05729227
                   Y  0.00000000  0.00000026  0.00425364 -0.00000001 -0.00000091
                   Z  0.00000122  0.00000000 -0.00000000  0.00000000 -0.00000000
  2   F            X -0.00000000 -0.00104099  0.00000140  0.01316213 -0.05729230
                   Y -0.00000000 -0.00000014  0.00425376  0.00000000 -0.00000112
                   Z -0.00000116 -0.00000000  0.00000000  0.00000000  0.00000000
  3   C            X -0.00000000  0.01002582 -0.00000005  0.02606970  0.14394221
                   Y  0.00000000 -0.00000096 -0.03643804 -0.00000339  0.00000056
                   Z -0.00000569  0.00000000 -0.00000000 -0.00000000  0.00000000
  4   C            X  0.00000000  0.01002389 -0.00000184 -0.02606804  0.14394262
                   Y  0.00000000  0.00000056 -0.03643929  0.00000122  0.00000139
                   Z  0.00000434  0.00000000  0.00000000 -0.00000000 -0.00000000
  5   C            X -0.00000000 -0.01879466 -0.05663057 -0.02688093 -0.00581694
                   Y -0.00000000  0.11523378  0.02926464 -0.03314634  0.04181705
                   Z  0.07554270  0.00000000  0.00000000  0.00000000  0.00000000
  6   C            X  0.00000000 -0.01878615  0.05663077  0.02688081 -0.00581525
                   Y -0.00000000 -0.11523056  0.02927750 -0.03314488 -0.04181502
                   Z -0.07554558 -0.00000000 -0.00000000 -0.00000000  0.00000000
  7   C            X  0.00000000 -0.01878623  0.05663715 -0.02687730 -0.00581303
                   Y  0.00000000 -0.11523245  0.02927341  0.03314690 -0.04181593
                   Z -0.07551213  0.00000000 -0.00000000 -0.00000000  0.00000000
  8   C            X -0.00000000 -0.01879407 -0.05663712  0.02687749 -0.00581558
                   Y  0.00000000  0.11523074  0.02926168  0.03314945  0.04181756
                   Z  0.07551634 -0.00000000 -0.00000000  0.00000000 -0.00000000
  9   H            X  0.00000000  0.17381125 -0.40259333 -0.39417896 -0.24775576
                   Y  0.00000000  0.23435472 -0.17175648 -0.25559458 -0.10564664
                   Z -0.42449584 -0.00000000 -0.00000000 -0.00000000 -0.00000000
 10   H            X -0.00000000  0.17385747  0.40259438  0.39420652 -0.24775869
                   Y  0.00000000 -0.23436136 -0.17172119 -0.25558549  0.10563580
                   Z  0.42452290  0.00000000 -0.00000000  0.00000000 -0.00000000
 11   H            X  0.00000000  0.17385904  0.40262880 -0.39417379 -0.24776274
                   Y -0.00000000 -0.23436366 -0.17174031  0.25556899  0.10563736
                   Z  0.42432111 -0.00000000 -0.00000000  0.00000000 -0.00000000
 12   H            X -0.00000000  0.17381639 -0.40262759  0.39413887 -0.24776962
                   Y -0.00000000  0.23435472 -0.17177563  0.25557602 -0.10565496
                   Z -0.42435052  0.00000000  0.00000000 -0.00000000  0.00000000

 TRANS. SAYVETZ    X -0.00000000 -0.00013507  0.00000020  0.00000049 -0.00023689
                   Y  0.00000000  0.00000008 -0.00034335  0.00000019  0.00000019
                   Z -0.00000168  0.00000000 -0.00000000  0.00000000  0.00000000
               TOTAL  0.00000168  0.00013507  0.00034335  0.00000053  0.00023689

   ROT. SAYVETZ    X -0.00003753  0.00000000  0.00000000  0.00000000  0.00000000
                   Y -0.00002796  0.00000000  0.00000000  0.00000000  0.00000000
                   Z  0.00000000 -0.00005646  0.00001379 -0.00000998 -0.00001422
               TOTAL  0.00004680  0.00005646  0.00001379  0.00000998  0.00001422

                           26          27          28          29          30
       FREQUENCY:      1276.32     1335.91     1374.23     1458.52     1559.91  
        SYMMETRY:         A           A           A           A           A   
    REDUCED MASS:      9.61383     1.27176    11.65954     3.19605     2.69935
    IR INTENSITY:      0.00000     0.00000     0.00099     0.00208     4.03120

  1   F            X  0.06415473 -0.00000150  0.00000219 -0.00000158 -0.02038488
                   Y  0.00000097 -0.00761696 -0.00012997 -0.01205618 -0.00000015
                   Z  0.00000000 -0.00000000  0.00000000  0.00000000  0.00000000
  2   F            X -0.06415481 -0.00000008 -0.00000279  0.00000045 -0.02038472
                   Y -0.00000130  0.00761697 -0.00013020 -0.01205633  0.00000009
                   Z  0.00000000 -0.00000000 -0.00000000 -0.00000000 -0.00000000
  3   C            X -0.15023203  0.00000410 -0.00001080  0.00000760  0.10889898
                   Y -0.00000746  0.08060931  0.12907059  0.10883648  0.00000234
                   Z -0.00000000 -0.00000000  0.00000000 -0.00000000 -0.00000000
  4   C            X  0.15023299  0.00000145  0.00000543 -0.00000278  0.10889873
                   Y -0.00000312 -0.08061186  0.12907362  0.10884085 -0.00000289
                   Z  0.00000000  0.00000000  0.00000000 -0.00000000  0.00000000
  5   C            X -0.07101094  0.03297029 -0.09092578  0.09334640 -0.05988388
                   Y  0.02575031  0.01834011 -0.06465114 -0.02855902 -0.06631176
                   Z  0.00000000  0.00000000 -0.00000000 -0.00000000 -0.00000000
  6   C            X  0.07101055  0.03297240  0.09093142 -0.09334851 -0.05987930
                   Y  0.02575297 -0.01834056 -0.06465225 -0.02855925  0.06630926
                   Z -0.00000000 -0.00000000  0.00000000 -0.00000000 -0.00000000
  7   C            X -0.07102098 -0.03297532  0.09092500 -0.09335541 -0.05987540
                   Y -0.02574661  0.01834245 -0.06465429 -0.02855353  0.06630518
                   Z  0.00000000  0.00000000  0.00000000  0.00000000  0.00000000
  8   C            X  0.07102011 -0.03297032 -0.09092235  0.09335047 -0.05988309
                   Y -0.02574354 -0.01833954 -0.06465948 -0.02855830 -0.06630689
                   Z -0.00000000 -0.00000000 -0.00000000  0.00000000 -0.00000000
  9   H            X -0.07329322 -0.37539978  0.02561535 -0.15806385  0.25684619
                   Y  0.03980665 -0.22574508  0.00265536 -0.19418018  0.11195522
                   Z -0.00000000 -0.00000000  0.00000000 -0.00000000 -0.00000000
 10   H            X  0.07328852 -0.37539459 -0.02563732  0.15808294  0.25683845
                   Y  0.03981144  0.22571570  0.00266230 -0.19417529 -0.11192869
                   Z -0.00000000 -0.00000000 -0.00000000 -0.00000000 -0.00000000
 11   H            X -0.07326400  0.37539326 -0.02564080  0.15810295  0.25682635
                   Y -0.03982578 -0.22571219  0.00265503 -0.19418315 -0.11192116
                   Z  0.00000000 -0.00000000 -0.00000000  0.00000000  0.00000000
 12   H            X  0.07327399  0.37539981  0.02563861 -0.15807439  0.25683417
                   Y -0.03981674  0.22574477  0.00265634 -0.19418707  0.11195220
                   Z  0.00000000  0.00000000  0.00000000  0.00000000  0.00000000

 TRANS. SAYVETZ    X  0.00000026 -0.00000040 -0.00000055 -0.00000036  0.00013974
                   Y -0.00000042  0.00000223  0.00009394  0.00046412 -0.00000035
                   Z  0.00000000 -0.00000000 -0.00000000 -0.00000000  0.00000000
               TOTAL  0.00000050  0.00000227  0.00009394  0.00046412  0.00013974

   ROT. SAYVETZ    X  0.00000000  0.00000000 -0.00000000  0.00000000  0.00000000
                   Y  0.00000000  0.00000000 -0.00000000  0.00000000 -0.00000000
                   Z -0.00002864 -0.00186777 -0.00001091 -0.00001019  0.00000275
               TOTAL  0.00002864  0.00186777  0.00001091  0.00001019  0.00000275

                           31          32          33          34          35
       FREQUENCY:      1664.12     1668.41     3237.44     3239.22     3251.96  
        SYMMETRY:         A           A           A           A           A   
    REDUCED MASS:      6.27366     8.02837     1.08900     1.08915     1.09603
    IR INTENSITY:      0.00000     0.00000     0.10977     0.00000     0.03693

  1   F            X -0.01003214 -0.00000276 -0.00038930  0.00000100  0.00000128
                   Y  0.00000184 -0.00518727  0.00000008  0.00006549 -0.00014938
                   Z  0.00000000  0.00000000  0.00000000 -0.00000000  0.00000000
  2   F            X  0.01003205  0.00000367 -0.00038983  0.00000068 -0.00000101
                   Y -0.00000127  0.00518695 -0.00000020 -0.00006566 -0.00014930
                   Z -0.00000000 -0.00000000  0.00000000  0.00000000  0.00000000
  3   C            X  0.08807194  0.00002302  0.00263401 -0.00000675 -0.00000850
                   Y -0.00004963  0.14711993 -0.00000395 -0.00225892  0.00353440
                   Z  0.00000000 -0.00000000  0.00000000  0.00000000 -0.00000000
  4   C            X -0.08807099 -0.00002902  0.00263740 -0.00000463  0.00000668
                   Y  0.00004453 -0.14711246  0.00000604  0.00226296  0.00353161
                   Z -0.00000000 -0.00000000 -0.00000000 -0.00000000  0.00000000
  5   C            X -0.11771250 -0.03801363  0.01938690 -0.01992437  0.02315568
                   Y -0.03562700 -0.08720407 -0.03616608  0.03612593 -0.03580086
                   Z -0.00000000 -0.00000000 -0.00000000 -0.00000000  0.00000000
  6   C            X  0.11773728 -0.03794073  0.01939114 -0.01993652 -0.02314225
                   Y -0.03567807  0.08717586  0.03617749 -0.03614799 -0.03578143
                   Z  0.00000000  0.00000000  0.00000000 -0.00000000 -0.00000000
  7   C            X -0.11772860  0.03794331  0.01945738  0.01982410 -0.02325568
                   Y  0.03567991 -0.08718262  0.03630268  0.03594778 -0.03596809
                   Z  0.00000000  0.00000000 -0.00000000 -0.00000000  0.00000000
  8   C            X  0.11770271  0.03801703  0.01949383  0.01986701  0.02322215
                   Y  0.03562734  0.08720471 -0.03635573 -0.03601032 -0.03590198
                   Z  0.00000000  0.00000000  0.00000000  0.00000000 -0.00000000
  9   H            X  0.10508687  0.10552324 -0.24285220  0.24443706 -0.24518407
                   Y  0.09871579 -0.01139336  0.40968160 -0.41103160  0.40667494
                   Z  0.00000000 -0.00000000  0.00000000  0.00000000 -0.00000000
 10   H            X -0.10515158  0.10545819 -0.24290002  0.24456341  0.24502377
                   Y  0.09869629  0.01145739 -0.40980726  0.41128542  0.40645122
                   Z -0.00000000  0.00000000 -0.00000000 -0.00000000  0.00000000
 11   H            X  0.10514914 -0.10546571 -0.24374450 -0.24320969  0.24628020
                   Y -0.09868436 -0.01146100 -0.41123484 -0.40901329  0.40855177
                   Z -0.00000000 -0.00000000 -0.00000000  0.00000000 -0.00000000
 12   H            X -0.10508077 -0.10553300 -0.24413358 -0.24366523 -0.24586372
                   Y -0.09870366  0.01138665  0.41183387  0.40972214  0.40780254
                   Z -0.00000000 -0.00000000 -0.00000000  0.00000000 -0.00000000

 TRANS. SAYVETZ    X  0.00000012 -0.00000036 -0.00004328  0.00000025  0.00000031
                   Y -0.00000009 -0.00000028  0.00000016  0.00000027 -0.00007938
                   Z  0.00000000  0.00000000  0.00000000  0.00000000  0.00000000
               TOTAL  0.00000015  0.00000046  0.00004328  0.00000036  0.00007938

   ROT. SAYVETZ    X  0.00000000 -0.00000000 -0.00000000  0.00000000 -0.00000000
                   Y -0.00000000 -0.00000000  0.00000000  0.00000000 -0.00000000
                   Z  0.00001646 -0.02931071 -0.00000316 -0.00295123  0.00000348
               TOTAL  0.00001646  0.02931071  0.00000316  0.00295123  0.00000348

                           36
       FREQUENCY:      3254.06  
        SYMMETRY:         A   
    REDUCED MASS:      1.09686
    IR INTENSITY:      0.00000

  1   F            X -0.00057537
                   Y -0.00000029
                   Z -0.00000000
  2   F            X  0.00057502
                   Y -0.00000030
                   Z -0.00000000
  3   C            X  0.00380661
                   Y  0.00000623
                   Z -0.00000000
  4   C            X -0.00380424
                   Y  0.00000766
                   Z  0.00000000
  5   C            X  0.02285528
                   Y -0.03638677
                   Z -0.00000000
  6   C            X -0.02284798
                   Y -0.03637699
                   Z -0.00000000
  7   C            X  0.02277297
                   Y  0.03626731
                   Z -0.00000000
  8   C            X -0.02274593
                   Y  0.03621271
                   Z -0.00000000
  9   H            X -0.24531573
                   Y  0.40848687
                   Z  0.00000000
 10   H            X  0.24522336
                   Y  0.40837546
                   Z -0.00000000
 11   H            X -0.24446545
                   Y -0.40712816
                   Z -0.00000000
 12   H            X  0.24412718
                   Y -0.40651008
                   Z -0.00000000

 TRANS. SAYVETZ    X  0.00000011
                   Y -0.00000016
                   Z -0.00000000
               TOTAL  0.00000019

   ROT. SAYVETZ    X -0.00000000
                   Y -0.00000000
                   Z  0.00000445
               TOTAL  0.00000445

 REFERENCE ON SAYVETZ CONDITIONS - A. SAYVETZ, J.CHEM.PHYS., 7, 383-389(1939).

 NOTE - THE MODES J,K ARE ORTHONORMALIZED ACCORDING TO
 SUM ON I   M(I) * (X(I,J)*X(I,K) + Y(I,J)*Y(I,K) + Z(I,J)*Z(I,K)) = DELTA(J,K)

  MODE FREQ(CM**-1)  SYMMETRY  RED. MASS  IR INTENS.
     1       6.959    A        8.636807    0.000000
     2       6.329    A        3.687694    0.000000
     3       3.282    A       13.321928    0.000000
     4       0.081    A        9.501520    0.000002
     5       0.044    A        9.502491    0.000001
     6       0.014    A        9.502055    0.000000
     7     161.189    A       11.799385    0.079302
     8     340.415    A       11.694918    0.159196
     9     374.980    A        7.725501    0.000000
    10     440.286    A        4.886113    0.000000
    11     447.309    A        3.010124    0.000000
    12     455.965    A       13.931556    0.000000
    13     516.809    A        2.614381    0.253265
    14     658.983    A        7.264955    0.000000
    15     703.288    A        4.304386    0.000000
    16     733.816    A        6.556578    1.157860
    17     839.547    A        1.243178    0.000000
    18     860.323    A        1.564827    2.372430
    19     867.161    A        6.736398    0.000000
    20     965.536    A        1.290792    0.000000
    21     987.514    A        1.345249    0.000000
    22    1046.435    A        2.529720    0.060988
    23    1132.085    A        1.273365    0.280113
    24    1193.393    A        1.121363    0.000000
    25    1243.306    A        2.895872    2.834446
    26    1276.321    A        9.613826    0.000000
    27    1335.912    A        1.271759    0.000000
    28    1374.225    A       11.659542    0.000995
    29    1458.522    A        3.196055    0.002083
    30    1559.907    A        2.699347    4.031204
    31    1664.122    A        6.273665    0.000000
    32    1668.406    A        8.028373    0.000000
    33    3237.443    A        1.089000    0.109775
    34    3239.215    A        1.089153    0.000001
    35    3251.962    A        1.096034    0.036934
    36    3254.063    A        1.096857    0.000000

     -------------------------------
     THERMOCHEMISTRY AT T=  298.15 K
     -------------------------------

 USING IDEAL GAS, RIGID ROTOR, HARMONIC NORMAL MODE APPROXIMATIONS.
 P=  1.01325E+05 PASCAL.
 ALL FREQUENCIES ARE SCALED BY   1.00000
 THE MOMENTS OF INERTIA ARE (IN AMU*BOHR**2)
            322.07342          1300.61789          1622.69131
 THE ROTATIONAL SYMMETRY NUMBER IS  1.0
 THE ROTATIONAL CONSTANTS ARE (IN GHZ)
      5.59838     1.38633     1.11117
      7 -     36 VIBRATIONAL MODES ARE USED IN THERMOCHEMISTRY.
 THE HARMONIC ZERO POINT ENERGY IS (SCALED BY   1.000)
        0.084949 HARTREE/MOLECULE    18644.220781 CM**-1/MOLECULE 
       53.306556 KCAL/MOL              223.034629 KJ/MOL

               Q               LN Q
 ELEC.     1.00000E+00       0.000000
 TRANS.    4.78599E+07      17.683788
 ROT.      2.95129E+05      12.595167
 VIB.      5.25224E+00       1.658654
 TOT.      7.41870E+13      31.937610

              E         H         G         CV        CP        S
           KJ/MOL    KJ/MOL    KJ/MOL   J/MOL-K   J/MOL-K   J/MOL-K
 ELEC.      0.000     0.000    -0.000     0.000     0.000     0.000
 TRANS.     3.718     6.197   -43.837    12.472    20.786   167.816
 ROT.       3.718     3.718   -31.223    12.472    12.472   117.193
 VIB.     231.127   231.127   218.923    70.800    70.800    40.932
 TOTAL    238.563   241.042   143.863    95.743   104.058   325.941
 VIB. THERMAL CORRECTION E(T)-E(0) = H(T)-H(0) =      8092.046 J/MOL

              E         H         G         CV        CP        S
         KCAL/MOL  KCAL/MOL  KCAL/MOL CAL/MOL-K CAL/MOL-K CAL/MOL-K
 ELEC.      0.000     0.000    -0.000     0.000     0.000     0.000
 TRANS.     0.889     1.481   -10.477     2.981     4.968    40.109
 ROT.       0.889     0.889    -7.462     2.981     2.981    28.010
 VIB.      55.241    55.241    52.324    16.922    16.922     9.783
 TOTAL     57.018    57.611    34.384    22.883    24.870    77.902
 VIB. THERMAL CORRECTION E(T)-E(0) = H(T)-H(0) =      1934.045 CAL/MOL
 ......END OF NORMAL COORDINATE ANALYSIS......
 STEP CPU TIME =     0.05 TOTAL CPU TIME =       4846.9 (     80.8 MIN)
 TOTAL WALL CLOCK TIME=       4846.9 SECONDS, CPU UTILIZATION IS   100.00%
                   580000  WORDS OF DYNAMIC MEMORY USED
 EXECUTION OF GAMESS TERMINATED NORMALLY Fri Apr  3 14:34:54 2020
 DDI: 263640 bytes (0.3 MB / 0 MWords) used by master data server.

 ----------------------------------------
 CPU timing information for all processes
 ========================================
 0: 4510.375000 + 103.890625 = 4614.265625
 1: 0.000000 + 0.093750 = 0.093750
 ----------------------------------------
           Disk usage (in bytes)       
 ========================================
 ----------------------------------------
            Local date and time          
 ========================================
03.04.2020 - 14:35:00,97                          
