----- GAMESS execution script 'rungms' -----
This job is running on host vusals-mbp
under operating system Darwin at Tue Mar 17 11:36:28 MSK 2020
Available scratch disk space (Kbyte units) at beginning of the job is
Filesystem   1024-blocks     Used Available Capacity iused               ifree %iused  Mounted on
/dev/disk1s5   118181844 45183772  68587072    40% 1005645 9223372036853770162    0%   /
GAMESS temporary binary files will be written to ./
GAMESS supplementary output files will be written to ./
Copying input file 6-311++G2dp_neutral.inp to your run's scratch directory...
cp 6-311++G2dp_neutral.inp .//6-311++G2dp_neutral.F05
unset echo
.//ddikick.x .//gamess.30Sep2018R3.x 6-311++G2dp_neutral -ddi 1 1 vusals-mbp -scr ./

 Distributed Data Interface kickoff program.
 Initiating 1 compute processes on 1 nodes to run the following command:
 .//gamess.30Sep2018R3.x 6-311++G2dp_neutral 

          ******************************************************
          *         GAMESS VERSION = 30 SEP 2018 (R3)         *
          *             FROM IOWA STATE UNIVERSITY             *
          * M.W.SCHMIDT, K.K.BALDRIDGE, J.A.BOATZ, S.T.ELBERT, *
          *   M.S.GORDON, J.H.JENSEN, S.KOSEKI, N.MATSUNAGA,   *
          *          K.A.NGUYEN, S.J.SU, T.L.WINDUS,           *
          *       TOGETHER WITH M.DUPUIS, J.A.MONTGOMERY       *
          *         J.COMPUT.CHEM.  14, 1347-1363(1993)        *
          **************** 64 BIT APPLE VERSION ****************

  SINCE 1993, STUDENTS AND POSTDOCS WORKING AT IOWA STATE UNIVERSITY
  AND ALSO IN THEIR VARIOUS JOBS AFTER LEAVING ISU HAVE MADE IMPORTANT
  CONTRIBUTIONS TO THE CODE:
     IVANA ADAMOVIC, CHRISTINE AIKENS, YURI ALEXEEV, POOJA ARORA,
     ANDREY ASADCHEV, ROB BELL, PRADIPTA BANDYOPADHYAY, JONATHAN BENTZ,
     BRETT BODE, KURT BRORSEN, CALEB CARLIN, GALINA CHABAN, WEI CHEN,
     CHEOL HO CHOI, PAUL DAY, ALBERT DEFUSCO, NUWAN DESILVA, TIM DUDLEY,
     DMITRI FEDOROV, ALEX FINDLATER, GRAHAM FLETCHER, MARK FREITAG,
     KURT GLAESEMANN, ANASTASIA GUNINA,
     DAN KEMP, GRANT MERRILL, NORIYUKI MINEZAWA, JONATHAN MULLIN,
     TAKESHI NAGATA, SEAN NEDD, HEATHER NETZLOFF, BOSILJKA NJEGIC, RYAN OLSON,
     MIKE PAK, BUU PHAM,
     SPENCER PRUITT, LUKE ROSKOP, JIM SHOEMAKER, LYUDMILA SLIPCHENKO,
     TONY SMITH, SAROM SOK LEANG, JIE SONG, TETSUYA TAKETSUGU, SIMON WEBB,
     PENG XU, SOOHAENG YOO, FEDERICO ZAHARIEV

  ADDITIONAL CODE HAS BEEN PROVIDED BY COLLABORATORS IN OTHER GROUPS:
     IOWA STATE UNIVERSITY:
          JOE IVANIC, AARON WEST, LAIMUTIS BYTAUTAS, KLAUS RUEDENBERG
     UNIVERSITY OF TOKYO: KIMIHIKO HIRAO, TAKAHITO NAKAJIMA,
          TAKAO TSUNEDA, MUNEAKI KAMIYA, SUSUMU YANAGISAWA,
          KIYOSHI YAGI, MAHITO CHIBA, SEIKEN TOKURA, NAOAKI KAWAKAMI
     UNIVERSITY OF AARHUS: FRANK JENSEN
     UNIVERSITY OF IOWA: VISVALDAS KAIRYS, HUI LI
     NATIONAL INST. OF STANDARDS AND TECHNOLOGY: WALT STEVENS, DAVID GARMER
     UNIVERSITY OF PISA: BENEDETTA MENNUCCI, JACOPO TOMASI
     UNIVERSITY OF MEMPHIS: HENRY KURTZ, PRAKASHAN KORAMBATH
     UNIVERSITY OF ALBERTA: TOBY ZENG, MARIUSZ KLOBUKOWSKI
     UNIVERSITY OF NEW ENGLAND: MARK SPACKMAN
     MIE UNIVERSITY: HIROAKI UMEDA
     NAT. INST. OF ADVANCED INDUSTRIAL SCIENCE AND TECHNOLOGY: KAZUO KITAURA
     MICHIGAN STATE UNIVERSITY:
          KAROL KOWALSKI, MARTA WLOCH, JEFFREY GOUR, JESSE LUTZ,
          WEI LI, JUN SHEN, J. EMILIANO DEUSTUA, PIOTR PIECUCH
     UNIVERSITY OF MINNESOTA:
          YINAN SHU
     UNIVERSITY OF SILESIA: MONIKA MUSIAL, STANISLAW KUCHARSKI
     FACULTES UNIVERSITAIRES NOTRE-DAME DE LA PAIX:
          OLIVIER QUINET, BENOIT CHAMPAGNE
     UNIVERSITY OF CALIFORNIA - SANTA BARBARA: BERNARD KIRTMAN
     INSTITUTE FOR MOLECULAR SCIENCE:
          KAZUYA ISHIMURA, MICHIO KATOUDA, AND SHIGERU NAGASE
     UNIVERSITY OF NOTRE DAME: ANNA POMOGAEVA, DAN CHIPMAN
     KYUSHU UNIVERSITY:
          HARUYUKI NAKANO,
          FENG LONG GU, JACEK KORCHOWIEC, MARCIN MAKOWSKI, AND YURIKO AOKI,
          HIROTOSHI MORI AND EISAKU MIYOSHI
     PENNSYLVANIA STATE UNIVERSITY:
          TZVETELIN IORDANOV, CHET SWALINA, JONATHAN SKONE,
          SHARON HAMMES-SCHIFFER
     WASEDA UNIVERSITY:
          MASATO KOBAYASHI, TOMOKO AKAMA, TSUGUKI TOUMA,
          TAKESHI YOSHIKAWA, YASUHIRO IKABATA, JUNJI SEINO,
          YUYA NAKAJIMA, HIROMI NAKAI
     NANJING UNIVERSITY: SHUHUA LI
     UNIVERSITY OF NEBRASKA:
          PEIFENG SU, DEJUN SI, NANDUN THELLAMUREGE, YALI WANG, HUI LI
     UNIVERSITY OF ZURICH: ROBERTO PEVERATI, KIM BALDRIDGE
     N. COPERNICUS UNIVERSITY AND JACKSON STATE UNIVERSITY:
          MARIA BARYSZ
     UNIVERSITY OF COPENHAGEN: Jimmy Kromann, CASPER STEINMANN
     TOKYO INSTITUTE OF TECHNOLOGY: HIROYA NAKATA
     NAGOYA UNIVERSITY: YOSHIO NISHIMOTO, STEPHAN IRLE
     MOSCOW STATE UNIVERSITY: VLADIMIR MIRONOV

 EXECUTION OF GAMESS BEGUN Tue Mar 17 11:36:28 2020

            ECHO OF THE FIRST FEW INPUT CARDS -
 INPUT CARD>!   File created by the GAMESS Input Deck Generator Plugin for Avogadro         
 INPUT CARD> $BASIS GBASIS=N311 NGAUSS=6 NDFUNC=1 NPFUNC=1 DIFFSP=.TRUE. DIFFS=.TRUE. $END  
 INPUT CARD> $PCM SOLVNT=WATER $END                                                         
 INPUT CARD> $CONTRL SCFTYP=ROHF RUNTYP=ENERGY DFTTYP=B3LYP $END                            
 INPUT CARD>                                                                                
 INPUT CARD> $DATA                                                                          
 INPUT CARD>Title                                                                           
 INPUT CARD>C1                                                                              
 INPUT CARD>O     8.0    -2.39010     0.52180     0.05290                                   
 INPUT CARD>O     8.0    -1.06530    -1.35010    -0.13120                                   
 INPUT CARD>O     8.0     1.76510     0.04650    -1.12260                                   
 INPUT CARD>O     8.0     1.76970    -0.17790     1.10700                                   
 INPUT CARD>N     7.0     1.26450     0.20130     0.02010                                   
 INPUT CARD>C     6.0    -0.07180     0.88360     0.09160                                   
 INPUT CARD>C     6.0    -1.18730    -0.13640    -0.01120                                   
 INPUT CARD>H     1.0    -0.12610     1.59050    -0.73710                                   
 INPUT CARD>H     1.0    -0.12330     1.40850     1.04640                                   
 INPUT CARD>H     1.0    -3.14270    -0.10620    -0.01010                                   
 INPUT CARD> $END                                                                           
    1000000 WORDS OF MEMORY AVAILABLE

     BASIS OPTIONS
     -------------
     GBASIS=N311         IGAUSS=       6      POLAR=POPN311 
     NDFUNC=       1     NFFUNC=       0     DIFFSP=       T
     NPFUNC=       1      DIFFS=       T     BASNAM=        


     RUN TITLE
     ---------
 Title                                                                           

 THE POINT GROUP OF THE MOLECULE IS C1      
 THE ORDER OF THE PRINCIPAL AXIS IS     0

 ATOM      ATOMIC                      COORDINATES (BOHR)
           CHARGE         X                   Y                   Z
 O           8.0    -4.5166340833        0.9860590204        0.0999665048
 O           8.0    -2.0131250947       -2.5513190560       -0.2479320496
 O           8.0     3.3355553409        0.0878722584       -2.1214063938
 O           8.0     3.3442480805       -0.3361822532        2.0919266684
 N           7.0     2.3895585115        0.3804018413        0.0379834924
 C           6.0    -0.1356823259        1.6697618828        0.1730989005
 C           6.0    -2.2436716652       -0.2577586247       -0.0211649311
 H           1.0    -0.2382944471        3.0056091835       -1.3929170255
 H           1.0    -0.2330032143        2.6616790537        1.9774092736
 H           1.0    -5.9388418616       -0.2006888999       -0.0190862325

          INTERNUCLEAR DISTANCES (ANGS.)
          ------------------------------

                1 O          2 O          3 O          4 O          5 N     

   1 O       0.0000000    2.3006515 *  4.3443524    4.3479470    3.6687733  
   2 O       2.3006515 *  0.0000000    3.3082518    3.3082347    2.8031592 *
   3 O       4.3443524    3.3082518    0.0000000    2.2408687 *  1.2571105 *
   4 O       4.3479470    3.3082347    2.2408687 *  0.0000000    1.2571282 *
   5 N       3.6687733    2.8031592 *  1.2571105 *  1.2571282 *  0.0000000  
   6 C       2.3466810 *  2.4548111 *  2.3556782 *  2.3556192 *  1.5021129 *
   7 C       1.3726121 *  1.2257046 *  3.1599570    3.1616360    2.4751453 *
   8 H       2.6252458 *  3.1458448    2.4716763 *  3.1815092    2.1064180 *
   9 H       2.6290039 *  3.1438797    3.1820842    2.4705842 *  2.1063267 *
  10 H       0.9822218 *  2.4243645 *  5.0346275    5.0383258    4.4180177  

                6 C          7 C          8 H          9 H         10 H     

   1 O       2.3466810 *  1.3726121 *  2.6252458 *  2.6290039 *  0.9822218 *
   2 O       2.4548111 *  1.2257046 *  3.1458448    3.1438797    2.4243645 *
   3 O       2.3556782 *  3.1599570    2.4716763 *  3.1820842    5.0346275  
   4 O       2.3556192 *  3.1616360    3.1815092    2.4705842 *  5.0383258  
   5 N       1.5021129 *  2.4751453 *  2.1064180 *  2.1063267 *  4.4180177  
   6 C       0.0000000    1.5150274 *  1.0905961 *  1.0907866 *  3.2280759  
   7 C       1.5150274 *  0.0000000    2.1529654 *  2.1534460 *  1.9556335 *
   8 H       1.0905961 *  2.1529654 *  0.0000000    1.7927644 *  3.5365513  
   9 H       1.0907866 *  2.1534460 *  1.7927644 *  0.0000000    3.5393904  
  10 H       3.2280759    1.9556335 *  3.5365513    3.5393904    0.0000000  

  * ... LESS THAN  3.000


     ATOMIC BASIS SET
     ----------------
 THE CONTRACTED PRIMITIVE FUNCTIONS HAVE BEEN UNNORMALIZED
 THE CONTRACTED BASIS FUNCTIONS ARE NOW NORMALIZED TO UNITY

  SHELL TYPE  PRIMITIVE        EXPONENT          CONTRACTION COEFFICIENT(S)

 O         

      1   S       1          8588.5000000    0.001895150083
      1   S       2          1297.2300000    0.014385900631
      1   S       3           299.2960000    0.070732003103
      1   S       4            87.3771000    0.240001010530
      1   S       5            25.6789000    0.594797026097
      1   S       6             3.7400400    0.280802012320

      2   L       7            42.1175000    0.113889012440    0.036511397380
      2   L       8             9.6283700    0.920811100576    0.237152982984
      2   L       9             2.8533200   -0.003274470358    0.819701941186

      3   L      10             0.9056610    1.000000000000    1.000000000000

      4   L      11             0.2556110    1.000000000000    1.000000000000

      5   L      12             0.0845000    1.000000000000    1.000000000000

      6   D      13             1.2920000    1.000000000000

 O         

      7   S      14          8588.5000000    0.001895150083
      7   S      15          1297.2300000    0.014385900631
      7   S      16           299.2960000    0.070732003103
      7   S      17            87.3771000    0.240001010530
      7   S      18            25.6789000    0.594797026097
      7   S      19             3.7400400    0.280802012320

      8   L      20            42.1175000    0.113889012440    0.036511397380
      8   L      21             9.6283700    0.920811100576    0.237152982984
      8   L      22             2.8533200   -0.003274470358    0.819701941186

      9   L      23             0.9056610    1.000000000000    1.000000000000

     10   L      24             0.2556110    1.000000000000    1.000000000000

     11   L      25             0.0845000    1.000000000000    1.000000000000

     12   D      26             1.2920000    1.000000000000

 O         

     13   S      27          8588.5000000    0.001895150083
     13   S      28          1297.2300000    0.014385900631
     13   S      29           299.2960000    0.070732003103
     13   S      30            87.3771000    0.240001010530
     13   S      31            25.6789000    0.594797026097
     13   S      32             3.7400400    0.280802012320

     14   L      33            42.1175000    0.113889012440    0.036511397380
     14   L      34             9.6283700    0.920811100576    0.237152982984
     14   L      35             2.8533200   -0.003274470358    0.819701941186

     15   L      36             0.9056610    1.000000000000    1.000000000000

     16   L      37             0.2556110    1.000000000000    1.000000000000

     17   L      38             0.0845000    1.000000000000    1.000000000000

     18   D      39             1.2920000    1.000000000000

 O         

     19   S      40          8588.5000000    0.001895150083
     19   S      41          1297.2300000    0.014385900631
     19   S      42           299.2960000    0.070732003103
     19   S      43            87.3771000    0.240001010530
     19   S      44            25.6789000    0.594797026097
     19   S      45             3.7400400    0.280802012320

     20   L      46            42.1175000    0.113889012440    0.036511397380
     20   L      47             9.6283700    0.920811100576    0.237152982984
     20   L      48             2.8533200   -0.003274470358    0.819701941186

     21   L      49             0.9056610    1.000000000000    1.000000000000

     22   L      50             0.2556110    1.000000000000    1.000000000000

     23   L      51             0.0845000    1.000000000000    1.000000000000

     24   D      52             1.2920000    1.000000000000

 N         

     25   S      53          6293.4800000    0.001969788147
     25   S      54           949.0440000    0.014961285923
     25   S      55           218.7760000    0.073500530843
     25   S      56            63.6916000    0.248936765774
     25   S      57            18.8282000    0.602459433142
     25   S      58             2.7202300    0.256201758938

     26   L      59            30.6331000    0.111906079519    0.038311918640
     26   L      60             7.0261400    0.921666654920    0.237403115502
     26   L      61             2.1120500   -0.002569191826    0.817592397779

     27   L      62             0.6840090    1.000000000000    1.000000000000

     28   L      63             0.2008780    1.000000000000    1.000000000000

     29   L      64             0.0639000    1.000000000000    1.000000000000

     30   D      65             0.9130000    1.000000000000

 C         

     31   S      66          4563.2400000    0.001966650249
     31   S      67           682.0240000    0.015230601932
     31   S      68           154.9730000    0.076126909656
     31   S      69            44.4553000    0.260801033080
     31   S      70            13.0290000    0.616462078191
     31   S      71             1.8277300    0.221006028032

     32   L      72            20.9642000    0.114660080729    0.040248692673
     32   L      73             4.8033100    0.919999647749    0.237593956746
     32   L      74             1.4593300   -0.003030682134    0.815853851473

     33   L      75             0.4834560    1.000000000000    1.000000000000

     34   L      76             0.1455850    1.000000000000    1.000000000000

     35   L      77             0.0438000    1.000000000000    1.000000000000

     36   D      78             0.6260000    1.000000000000

 C         

     37   S      79          4563.2400000    0.001966650249
     37   S      80           682.0240000    0.015230601932
     37   S      81           154.9730000    0.076126909656
     37   S      82            44.4553000    0.260801033080
     37   S      83            13.0290000    0.616462078191
     37   S      84             1.8277300    0.221006028032

     38   L      85            20.9642000    0.114660080729    0.040248692673
     38   L      86             4.8033100    0.919999647749    0.237593956746
     38   L      87             1.4593300   -0.003030682134    0.815853851473

     39   L      88             0.4834560    1.000000000000    1.000000000000

     40   L      89             0.1455850    1.000000000000    1.000000000000

     41   L      90             0.0438000    1.000000000000    1.000000000000

     42   D      91             0.6260000    1.000000000000

 H         

     43   S      92            33.8650000    0.025493814541
     43   S      93             5.0947900    0.190373108582
     43   S      94             1.1587900    0.852161486043

     44   S      95             0.3258400    1.000000000000

     45   S      96             0.1027410    1.000000000000

     46   S      97             0.0360000    1.000000000000

     47   P      98             0.7500000    1.000000000000

 H         

     48   S      99            33.8650000    0.025493814541
     48   S     100             5.0947900    0.190373108582
     48   S     101             1.1587900    0.852161486043

     49   S     102             0.3258400    1.000000000000

     50   S     103             0.1027410    1.000000000000

     51   S     104             0.0360000    1.000000000000

     52   P     105             0.7500000    1.000000000000

 H         

     53   S     106            33.8650000    0.025493814541
     53   S     107             5.0947900    0.190373108582
     53   S     108             1.1587900    0.852161486043

     54   S     109             0.3258400    1.000000000000

     55   S     110             0.1027410    1.000000000000

     56   S     111             0.0360000    1.000000000000

     57   P     112             0.7500000    1.000000000000

 TOTAL NUMBER OF BASIS SET SHELLS             =   57
 NUMBER OF CARTESIAN GAUSSIAN BASIS FUNCTIONS =  182
 NUMBER OF ELECTRONS                          =   54
 CHARGE OF MOLECULE                           =    0
 SPIN MULTIPLICITY                            =    1
 NUMBER OF OCCUPIED ORBITALS (ALPHA)          =   27
 NUMBER OF OCCUPIED ORBITALS (BETA )          =   27
 TOTAL NUMBER OF ATOMS                        =   10
 THE NUCLEAR REPULSION ENERGY IS      302.1439587692

     LEBEDEV GRID-BASED DFT OPTIONS
     ------------------------------
     DFTTYP=B3LYP   
     NRAD  =      96     NLEB  =     302
     NRAD0 =      24     NLEB0 =     110
     SWOFF =    5.00E-03 (PURE SCF -> DFT)
     SWITCH=    3.00E-04 (COARSE -> TIGHT GRID)
     THRESH=    0.00E+00 GTHRE=    1.00E+00

 GRIMME'S EMPIRICAL DISPERSION CORRECTION= F

     $CONTRL OPTIONS
     ---------------
 SCFTYP=ROHF         RUNTYP=ENERGY       EXETYP=RUN     
 MPLEVL=       0     CITYP =NONE         CCTYP =NONE         VBTYP =NONE    
 DFTTYP=B3LYP        TDDFT =NONE    
 MULT  =       1     ICHARG=       0     NZVAR =       0     COORD =UNIQUE  
 PP    =NONE         RELWFN=NONE         LOCAL =NONE         NUMGRD=       F
 ISPHER=      -1     NOSYM =       0     MAXIT =      30     UNITS =ANGS    
 PLTORB=       F     MOLPLT=       F     AIMPAC=       F     FRIEND=        
 NPRINT=       7     IREST =       0     GEOM  =INPUT   
 NORMF =       0     NORMP =       0     ITOL  =      20     ICUT  =       9
 INTTYP=BEST         GRDTYP=BEST         QMTTOL= 1.0E-06

     $SYSTEM OPTIONS
     ---------------
  REPLICATED MEMORY=     1000000 WORDS (ON EVERY NODE).
 DISTRIBUTED MEMDDI=           0 MILLION WORDS IN AGGREGATE,
 MEMDDI DISTRIBUTED OVER   1 PROCESSORS IS           0 WORDS/PROCESSOR.
 TOTAL MEMORY REQUESTED ON EACH PROCESSOR=     1000000 WORDS.
 TIMLIM=      525600.00 MINUTES, OR     365.0 DAYS.
 PARALL= F  BALTYP=  DLB     KDIAG=    0  COREFL= F
 MXSEQ2=     300 MXSEQ3=     150  mem10=         0

 ** LOOKING UP INTERNALLY STORED DATA FOR SOLVENT=WATER    **
 OPTICAL AND PHYSICAL CONSTANTS:
 EPS= 78.390; EPSINF=  1.776; RSOLV=  1.385 A; VMOL=  18.070 ML/MOL;
 TCE= .25700E-03 1/K; STEN= 71.810 DYN/CM;  DSTEN=  0.6500; CMF=  1.2770


     -----------------------------------
     INPUT FOR PCM SOLVATION CALCULATION 
     -----------------------------------
     IEF   =     -10
     ICOMP =       0     IFIELD=       0     ICAV  =       0
     IDISP =       0     IREP  =       0     IDP   =       0

     SOLVNT=WATER        EPS   = 78.3900     EPSINF=  1.7760
     VMOL  = 18.0700     TCE   =  0.00025700 STEN  = 71.8100
     DSTEN =  0.6500     CMF   =  1.2770     RSOLV =  1.3850

     NESFP =       0
     OMEGA = 40.0000     RET   =100.0000     FRO   =  0.7000

     TABS  =298.0000     IPRINT=       0

     --------------------------------
     INPUT FOR ITERATIVE C-PCM METHOD 
     --------------------------------
     IPCMIT  =         1     MXDIIS  =        50
     MXITR1  =        50     MXITR2  =        50
     THRES   = 0.100E-09     IMUL    =         3
     RCUT(1) =   15.0000     RCUT(2) =   30.0000

     IDIRCT  =         1
     IMGABI  =         0     RABI    =    4.0000
     IMGASC  =         0     RASC    =   20.0000
     THRSLS  = 0.500E-03     DENSLS  =    0.0100
     IEFPOL  =         1     REFPOL  =    0.0000

     INPUT FOR ISOTROPIC DIELECTRICS
     -------------------------------
     EPS=    78.39

     INPUT FOR CAVITY DEFINITION 
     ---------------------------
   ATOM               COORDINATES                RADIUS       EPS
      1     -2.3901      0.5218      0.0529      1.5000     78.3900
      2     -1.0653     -1.3501     -0.1312      1.5000     78.3900
      3      1.7651      0.0465     -1.1226      1.5000     78.3900
      4      1.7697     -0.1779      1.1070      1.5000     78.3900
      5      1.2645      0.2013      0.0201      1.6000     78.3900
      6     -0.0718      0.8836      0.0916      1.7000     78.3900
      7     -1.1873     -0.1364     -0.0112      1.7000     78.3900
      8     -0.1261      1.5905     -0.7371      1.2000     78.3900
      9     -0.1233      1.4085      1.0464      1.2000     78.3900
     10     -3.1427     -0.1062     -0.0101      1.2000     78.3900

     ----------------------------
     INPUT FOR TESSERA DEFINITION
     ----------------------------
     NTSALL  =        60     MTHALL  =         4
     MTHAUT  =         0     AUTFRE  =    2.0000
     NTSFRZ  =        60     KEEPSM  =         0
     AREAKP  =   10.0000     BONDRY  =    1.0000
     AREATL  =    0.0100

     SPHERE     INITS       METHOD
          1        60       FIXPVA
          2        60       FIXPVA
          3        60       FIXPVA
          4        60       FIXPVA
          5        60       FIXPVA
          6        60       FIXPVA
          7        60       FIXPVA
          8        60       FIXPVA
          9        60       FIXPVA
         10        60       FIXPVA

     ------------------------------
      FIXPVA TESSELLATION FOR PCM
         PEIFENG SU AND HUI LI
     UNIVERSITY OF NEBRASKA-LINCOLN
     ------------------------------


 PCM DIMENSIONS: MXSP=  2000, MXTS=       600, MEMORY=         35203

          ----------------
          PROPERTIES INPUT
          ----------------

     MOMENTS            FIELD           POTENTIAL          DENSITY
 IEMOM =       1   IEFLD =       0   IEPOT =       0   IEDEN =       0
 WHERE =COMASS     WHERE =NUCLEI     WHERE =NUCLEI     WHERE =NUCLEI  
 OUTPUT=BOTH       OUTPUT=BOTH       OUTPUT=BOTH       OUTPUT=BOTH    
 IEMINT=       0   IEFINT=       0                     IEDINT=       0
                                                       MORB  =       0
          EXTRAPOLATION IN EFFECT
          DIIS IN EFFECT
 ORBITAL PRINTING OPTION: NPREO=     1   182     2     1

     -------------------------------
     INTEGRAL TRANSFORMATION OPTIONS
     -------------------------------
     NWORD  =            0
     CUTOFF = 1.0E-09     MPTRAN =       0
     DIRTRF =       F     AOINTS =DUP     

          ----------------------
          INTEGRAL INPUT OPTIONS
          ----------------------
 NOPK  =       1 NORDER=       0 SCHWRZ=       T

     ------------------------------------------
     THE POINT GROUP IS C1 , NAXIS= 1, ORDER= 1
     ------------------------------------------

     DIMENSIONS OF THE SYMMETRY SUBSPACES ARE
 A   =  182

 ..... DONE SETTING UP THE RUN .....
 STEP CPU TIME =     0.00 TOTAL CPU TIME =          0.0 (      0.0 MIN)
 TOTAL WALL CLOCK TIME=          0.0 SECONDS, CPU UTILIZATION IS     0.00%

          ********************
          1 ELECTRON INTEGRALS
          ********************
 ...... END OF ONE-ELECTRON INTEGRALS ......
 STEP CPU TIME =     0.01 TOTAL CPU TIME =          0.0 (      0.0 MIN)
 TOTAL WALL CLOCK TIME=          0.0 SECONDS, CPU UTILIZATION IS    50.00%

          -------------
          GUESS OPTIONS
          -------------
          GUESS =HUCKEL            NORB  =       0          NORDER=       0
          MIX   =       F          PRTMO =       F          PUNMO =       F
          TOLZ  = 1.0E-08          TOLE  = 1.0E-05
          SYMDEN=       F          PURIFY=       F

 INITIAL GUESS ORBITALS GENERATED BY HUCKEL   ROUTINE.
 HUCKEL GUESS REQUIRES    252450 WORDS.

 SYMMETRIES FOR INITIAL GUESS ORBITALS FOLLOW.  ALPHA SET(S).
    27 ORBITALS ARE OCCUPIED (    7 CORE ORBITALS).
     8=A        9=A       10=A       11=A       12=A       13=A       14=A   
    15=A       16=A       17=A       18=A       19=A       20=A       21=A   
    22=A       23=A       24=A       25=A       26=A       27=A       28=A   
    29=A       30=A       31=A       32=A       33=A       34=A       35=A   
    36=A       37=A   

 SYMMETRIES FOR INITIAL GUESS ORBITALS FOLLOW.   BETA SET(S).
    27 ORBITALS ARE OCCUPIED (    7 CORE ORBITALS).
     8=A        9=A       10=A       11=A       12=A       13=A       14=A   
    15=A       16=A       17=A       18=A       19=A       20=A       21=A   
    22=A       23=A       24=A       25=A       26=A       27=A       28=A   
    29=A       30=A       31=A       32=A       33=A       34=A       35=A   
    36=A       37=A   
 ...... END OF INITIAL ORBITAL SELECTION ......
 STEP CPU TIME =     0.06 TOTAL CPU TIME =          0.1 (      0.0 MIN)
 TOTAL WALL CLOCK TIME=          0.1 SECONDS, CPU UTILIZATION IS    77.78%

                    ----------------------
                    AO INTEGRAL TECHNOLOGY
                    ----------------------
     S,P,L SHELL ROTATED AXIS INTEGRALS, REPROGRAMMED BY
        KAZUYA ISHIMURA (IMS) AND JOSE SIERRA (SYNSTAR).
     S,P,D,L SHELL ROTATED AXIS INTEGRALS PROGRAMMED BY
        KAZUYA ISHIMURA (INSTITUTE FOR MOLECULAR SCIENCE).
     S,P,D,F,G SHELL TO TOTAL QUARTET ANGULAR MOMENTUM SUM 5,
        ERIC PROGRAM BY GRAHAM FLETCHER (ELORET AND NASA ADVANCED
        SUPERCOMPUTING DIVISION, AMES RESEARCH CENTER).
     S,P,D,F,G,L SHELL GENERAL RYS QUADRATURE PROGRAMMED BY
        MICHEL DUPUIS (PACIFIC NORTHWEST NATIONAL LABORATORY).

          --------------------
          2 ELECTRON INTEGRALS
          --------------------

 THE -PK- OPTION IS OFF, THE INTEGRALS ARE NOT IN SUPERMATRIX FORM.
 STORING   15000 INTEGRALS/RECORD ON DISK, USING 12 BYTES/INTEGRAL.
 TWO ELECTRON INTEGRAL EVALUATION REQUIRES   92049 WORDS OF MEMORY.
 SCHWARZ INEQUALITY OVERHEAD:     16079 INTEGRALS, T=        0.00
 II,JST,KST,LST =  1  1  1  1 NREC =         1 INTLOC =    1
 II,JST,KST,LST =  2  1  1  1 NREC =         1 INTLOC =    2
 II,JST,KST,LST =  3  1  1  1 NREC =         1 INTLOC =   34
 II,JST,KST,LST =  4  1  1  1 NREC =         1 INTLOC =  214
 II,JST,KST,LST =  5  1  1  1 NREC =         1 INTLOC =  776
 II,JST,KST,LST =  6  1  1  1 NREC =         1 INTLOC = 2074
 II,JST,KST,LST =  7  1  1  1 NREC =         1 INTLOC = 5929
 II,JST,KST,LST =  8  1  1  1 NREC =         1 INTLOC = 9580
 II,JST,KST,LST =  9  1  1  1 NREC =         3 INTLOC = 2307
 II,JST,KST,LST = 10  1  1  1 NREC =         6 INTLOC = 5076
 II,JST,KST,LST = 11  1  1  1 NREC =        11 INTLOC = 3404
 II,JST,KST,LST = 12  1  1  1 NREC =        17 INTLOC =14593
 II,JST,KST,LST = 13  1  1  1 NREC =        30 INTLOC =13148
 II,JST,KST,LST = 14  1  1  1 NREC =        31 INTLOC =10676
 II,JST,KST,LST = 15  1  1  1 NREC =        35 INTLOC =14217
 II,JST,KST,LST = 16  1  1  1 NREC =        42 INTLOC =14823
 II,JST,KST,LST = 17  1  1  1 NREC =        59 INTLOC = 6642
 II,JST,KST,LST = 18  1  1  1 NREC =        83 INTLOC = 7411
 II,JST,KST,LST = 19  1  1  1 NREC =       105 INTLOC =11942
 II,JST,KST,LST = 20  1  1  1 NREC =       108 INTLOC = 6636
 II,JST,KST,LST = 21  1  1  1 NREC =       121 INTLOC = 5439
 II,JST,KST,LST = 22  1  1  1 NREC =       144 INTLOC = 1826
 II,JST,KST,LST = 23  1  1  1 NREC =       186 INTLOC =12579
 II,JST,KST,LST = 24  1  1  1 NREC =       245 INTLOC =  441
 II,JST,KST,LST = 25  1  1  1 NREC =       302 INTLOC =12141
 II,JST,KST,LST = 26  1  1  1 NREC =       315 INTLOC = 1906
 II,JST,KST,LST = 27  1  1  1 NREC =       370 INTLOC = 6261
 II,JST,KST,LST = 28  1  1  1 NREC =       447 INTLOC = 5528
 II,JST,KST,LST = 29  1  1  1 NREC =       555 INTLOC =  252
 II,JST,KST,LST = 30  1  1  1 NREC =       681 INTLOC = 2961
 II,JST,KST,LST = 31  1  1  1 NREC =       856 INTLOC =11187
 II,JST,KST,LST = 32  1  1  1 NREC =       882 INTLOC = 8818
 II,JST,KST,LST = 33  1  1  1 NREC =      1002 INTLOC = 3893
 II,JST,KST,LST = 34  1  1  1 NREC =      1188 INTLOC = 4103
 II,JST,KST,LST = 35  1  1  1 NREC =      1404 INTLOC =13397
 II,JST,KST,LST = 36  1  1  1 NREC =      1645 INTLOC = 3519
 II,JST,KST,LST = 37  1  1  1 NREC =      2038 INTLOC = 9248
 II,JST,KST,LST = 38  1  1  1 NREC =      2089 INTLOC =13963
 II,JST,KST,LST = 39  1  1  1 NREC =      2312 INTLOC =  356
 II,JST,KST,LST = 40  1  1  1 NREC =      2625 INTLOC = 4180
 II,JST,KST,LST = 41  1  1  1 NREC =      2996 INTLOC =12174
 II,JST,KST,LST = 42  1  1  1 NREC =      3403 INTLOC = 3041
 II,JST,KST,LST = 43  1  1  1 NREC =      4009 INTLOC =12454
 II,JST,KST,LST = 44  1  1  1 NREC =      4095 INTLOC =12788
 II,JST,KST,LST = 45  1  1  1 NREC =      4215 INTLOC =14278
 II,JST,KST,LST = 46  1  1  1 NREC =      4342 INTLOC =11305
 II,JST,KST,LST = 47  1  1  1 NREC =      4472 INTLOC = 2840
 II,JST,KST,LST = 48  1  1  1 NREC =      4813 INTLOC =10700
 II,JST,KST,LST = 49  1  1  1 NREC =      4913 INTLOC = 6731
 II,JST,KST,LST = 50  1  1  1 NREC =      5050 INTLOC =11604
 II,JST,KST,LST = 51  1  1  1 NREC =      5195 INTLOC = 7468
 II,JST,KST,LST = 52  1  1  1 NREC =      5343 INTLOC = 1661
 II,JST,KST,LST = 53  1  1  1 NREC =      5734 INTLOC =14781
 II,JST,KST,LST = 54  1  1  1 NREC =      5819 INTLOC = 1944
 II,JST,KST,LST = 55  1  1  1 NREC =      5934 INTLOC = 6907
 II,JST,KST,LST = 56  1  1  1 NREC =      6090 INTLOC = 2191
 II,JST,KST,LST = 57  1  1  1 NREC =      6254 INTLOC = 1446
 SCHWARZ INEQUALITY TEST SKIPPED      305560 INTEGRAL BLOCKS.
 TOTAL NUMBER OF NONZERO TWO-ELECTRON INTEGRALS =            98482231
       6566 INTEGRAL RECORDS WERE STORED ON DISK FILE  8.
  ...... END OF TWO-ELECTRON INTEGRALS .....
 STEP CPU TIME =     3.71 TOTAL CPU TIME =          3.8 (      0.1 MIN)
 TOTAL WALL CLOCK TIME=          4.2 SECONDS, CPU UTILIZATION IS    90.87%

          ---------------------------
             RO-B3LYP SCF CALCULATION
          ---------------------------

     NUCLEAR ENERGY =       302.1439587692
     MAXIT = 30     NPUNCH=  2     MULT=  1
     EXTRAP=T  DAMP=F  SHIFT=F  RSTRCT=F  DIIS=T  SOSCF=F
         DENSITY MATRIX CONVERGENCE THRESHOLD=  1.00E-05
     COARSE -> FINE DFT GRID SWITCH THRESHOLD=  3.00E-04 (SWITCH IN $DFT)
                   HF -> DFT SWITCH THRESHOLD=  5.00E-03 (SWOFF IN $DFT)
     ROHF CANONICALIZATION PARAMETERS
             C-C     O-O     V-V
     ALPHA -0.5000  0.5000  1.5000
     BETA   1.5000  0.5000 -0.5000
     MEMORY REQUIRED FOR UHF/ROHF ITERS=    712532 WORDS.

 DFT CODE IS SWITCHING FROM THE FINE GRID NRAD= 96,  NLEB=  302
                      TO THE COARSE GRID NRAD0= 24, NLEB0=  110

     EXCHANGE FUNCTIONAL   =B88&HFX   
     CORRELATION FUNCTIONAL=LYP88&VWN5
     DFT THRESHOLD         =.138E-07
     GRID CHANGE THRESHOLD =.300E-03
 FOR AN EULER-MACLAURIN QUADRATURE USING  96 RADIAL POINTS:
 SMALLEST GAUSSIAN PRIMITIVE EXPONENT=        0.0360000000 OF TYPE -S-
 ON ATOM NUMBER   8 HAS RADIAL NORMALIZATION=  1.000000
  LARGEST GAUSSIAN PRIMITIVE EXPONENT=     8588.5000000000 OF TYPE -S-
 ON ATOM NUMBER   1 HAS RADIAL NORMALIZATION=  1.000000
 DFT IS SWITCHED OFF, PERFORMING PURE SCF UNTIL SWOFF THRESHOLD IS REACHED.

 ITER EX      TOTAL ENERGY        E CHANGE  DENSITY CHANGE    DIIS ERROR
   1  0     -429.4490221526  -429.4490221526   1.488647507   1.468588217
          * * *   INITIATING DIIS PROCEDURE   * * *
   2  1     -430.8824134869    -1.4333913343   0.349840433   0.318389579
   3  2     -431.0376013045    -0.1551878176   0.180210697   0.294752110
   4  3     -431.3703535669    -0.3327522624   0.018028551   0.008426437
   5  4     -431.3731617441    -0.0028081772   0.008134001   0.004030518
   6  5     -431.3735966455    -0.0004349014   0.002645102   0.001569095
 CONVERGED TO SWOFF, SO DFT CALCULATION IS NOW SWITCHED ON.
          * * *   INITIATING DIIS PROCEDURE   * * *
   7  6     -433.4420518783    -2.0684552328   0.078703992   0.139970184
   8  7     -433.4931573454    -0.0511054671   0.093525793   0.055165173
   9  8     -433.4722962395     0.0208611058   0.051096731   0.090267975
  10  9     -433.5077325884    -0.0354363488   0.008512524   0.011616621
  11 10     -433.5084368223    -0.0007042339   0.002592261   0.004380094
  12 11     -433.5084974931    -0.0000606708   0.001375300   0.001582455
  13 12     -433.5085121754    -0.0000146823   0.000263994   0.000465022
 DFT CODE IS SWITCHING BACK TO THE FINE GRID
          * * *   INITIATING DIIS PROCEDURE   * * *
  14 13     -433.5108784318    -0.0023662564   0.004934500   0.001733377
  15 14     -433.5109151079    -0.0000366761   0.001249762   0.001017140
  16 15     -433.5108968354     0.0000182725   0.001092657   0.002993945
  17 16     -433.5109183183    -0.0000214829   0.000270318   0.000843616
  18 17     -433.5109201301    -0.0000018118   0.000061433   0.000095877
  19 18     -433.5109201614    -0.0000000313   0.000039257   0.000058435
  20 19     -433.5109201711    -0.0000000097   0.000006812   0.000008328
  21 20     -433.5109201716    -0.0000000005   0.000003365   0.000002864

          -----------------
          DENSITY CONVERGED
          -----------------
     TIME TO FORM FOCK OPERATORS=      95.7 SECONDS (       4.6 SEC/ITER)
     TIME TO SOLVE SCF EQUATIONS=       1.4 SECONDS (       0.1 SEC/ITER)

 FINAL RO-B3LYP ENERGY IS     -433.5109201716 AFTER  21 ITERATIONS
 DFT EXCHANGE + CORRELATION ENERGY =       -42.7217541903
 TOTAL ELECTRON NUMBER             =        53.9999600734

          --------------------
          SPIN SZ   =    0.000
          S-SQUARED =    0.000
          --------------------

          ------------
          EIGENVECTORS
          ------------

                      1          2          3          4          5
                  -19.2168   -19.1889   -19.1889   -19.1631   -14.5760
                     A          A          A          A          A   
    1  O  1  S    0.551779  -0.000001  -0.000002   0.000049  -0.000002
    2  O  1  S    0.466303  -0.000002  -0.000005   0.000064   0.000007
    3  O  1  X    0.000167   0.000001   0.000002  -0.000021  -0.000015
    4  O  1  Y   -0.001417  -0.000000  -0.000002   0.000021   0.000006
    5  O  1  Z   -0.000140  -0.000003   0.000001   0.000002   0.000001
    6  O  1  S    0.020842  -0.000003  -0.000009  -0.000009   0.000017
    7  O  1  X   -0.000100  -0.000003  -0.000009   0.000086   0.000065
    8  O  1  Y    0.000746   0.000002   0.000010  -0.000059  -0.000026
    9  O  1  Z    0.000074   0.000009  -0.000002  -0.000006  -0.000003
   10  O  1  S    0.002111   0.000034   0.000102  -0.000192  -0.000283
   11  O  1  X    0.000493   0.000014   0.000042  -0.000351  -0.000236
   12  O  1  Y   -0.000460  -0.000008  -0.000028  -0.000262   0.000104
   13  O  1  Z   -0.000045  -0.000010   0.000000  -0.000026   0.000010
   14  O  1  S   -0.001323   0.000144   0.000434  -0.000601  -0.001125
   15  O  1  X    0.000194  -0.000037  -0.000109  -0.000061  -0.000451
   16  O  1  Y    0.000303  -0.000078  -0.000216   0.000075   0.000104
   17  O  1  Z    0.000030   0.000037  -0.000037   0.000008   0.000010
   18  O  1 XX   -0.006023  -0.000003  -0.000010   0.000043   0.000027
   19  O  1 YY   -0.006011  -0.000002  -0.000009   0.000086   0.000023
   20  O  1 ZZ   -0.005980  -0.000004  -0.000010   0.000027   0.000022
   21  O  1 XY   -0.000026  -0.000001  -0.000001  -0.000043  -0.000008
   22  O  1 XZ   -0.000003   0.000002  -0.000001  -0.000004  -0.000001
   23  O  1 YZ   -0.000004  -0.000003   0.000001   0.000007   0.000000
   24  O  2  S   -0.000057  -0.000000  -0.000000   0.551767  -0.000001
   25  O  2  S   -0.000026  -0.000001  -0.000002   0.466332   0.000006
   26  O  2  X    0.000014   0.000002   0.000005  -0.000199  -0.000015
   27  O  2  Y   -0.000029  -0.000000   0.000001   0.001591  -0.000010
   28  O  2  Z   -0.000003   0.000008  -0.000002   0.000157  -0.000001
   29  O  2  S    0.000010   0.000002   0.000006   0.020678  -0.000008
   30  O  2  X   -0.000037  -0.000005  -0.000015   0.000114   0.000043
   31  O  2  Y    0.000130   0.000002  -0.000002  -0.001050   0.000038
   32  O  2  Z    0.000013  -0.000027   0.000009  -0.000104   0.000004
   33  O  2  S   -0.000183  -0.000034  -0.000111   0.002717   0.000102
   34  O  2  X   -0.000198  -0.000014  -0.000042  -0.000072   0.000029
   35  O  2  Y   -0.000086  -0.000018  -0.000039   0.000946   0.000005
   36  O  2  Z   -0.000009   0.000055  -0.000023   0.000094   0.000001
   37  O  2  S   -0.000398  -0.000080  -0.000249   0.000352   0.000666
   38  O  2  X   -0.000136  -0.000054  -0.000159  -0.000158   0.000051
   39  O  2  Y   -0.000124  -0.000026  -0.000090   0.000242   0.000236
   40  O  2  Z   -0.000012  -0.000034   0.000002   0.000024   0.000023
   41  O  2 XX    0.000039  -0.000000  -0.000000  -0.005997   0.000019
   42  O  2 YY    0.000086   0.000000   0.000001  -0.006102   0.000015
   43  O  2 ZZ    0.000045  -0.000003  -0.000009  -0.006023   0.000013
   44  O  2 XY   -0.000059  -0.000002  -0.000005   0.000014   0.000016
   45  O  2 XZ   -0.000006   0.000003  -0.000002   0.000001   0.000002
   46  O  2 YZ    0.000005   0.000001   0.000001  -0.000009   0.000000
   47  O  3  S    0.000002  -0.245565   0.494112   0.000001  -0.000041
   48  O  3  S   -0.000001  -0.207548   0.417658  -0.000000  -0.000016
   49  O  3  X   -0.000000   0.000312  -0.000627  -0.000004   0.000023
   50  O  3  Y   -0.000001  -0.000100   0.000204  -0.000003  -0.000007
   51  O  3  Z   -0.000000  -0.000713   0.001380   0.000000  -0.000057
   52  O  3  S   -0.000011  -0.009161   0.018432  -0.000001  -0.000101
   53  O  3  X    0.000003  -0.000189   0.000343   0.000012  -0.000222
   54  O  3  Y    0.000003   0.000059  -0.000106   0.000011   0.000067
   55  O  3  Z    0.000000   0.000463  -0.000756  -0.000000   0.000516
   56  O  3  S    0.000105  -0.001695   0.002665   0.000001  -0.000287
   57  O  3  X   -0.000054   0.000384  -0.000336  -0.000024   0.000133
   58  O  3  Y   -0.000023  -0.000174   0.000069  -0.000014  -0.000024
   59  O  3  Z    0.000008  -0.000446   0.000888   0.000014  -0.000303
   60  O  3  S   -0.000267   0.002094  -0.003526  -0.000097  -0.001089
   61  O  3  X    0.000076  -0.000305   0.000432   0.000064  -0.000056
   62  O  3  Y    0.000099   0.000167  -0.000062   0.000089  -0.000007
   63  O  3  Z   -0.000065   0.000358  -0.000777  -0.000044  -0.000399
   64  O  3 XX   -0.000006   0.002661  -0.005341  -0.000001   0.000040
   65  O  3 YY   -0.000008   0.002680  -0.005331  -0.000004  -0.000044
   66  O  3 ZZ   -0.000011   0.002784  -0.005378   0.000001   0.000401
   67  O  3 XY   -0.000002   0.000019   0.000003   0.000002  -0.000035
   68  O  3 XZ   -0.000004  -0.000012   0.000045  -0.000003  -0.000225
   69  O  3 YZ   -0.000003  -0.000005  -0.000020   0.000004   0.000070
   70  O  4  S    0.000002   0.494115   0.245560   0.000001  -0.000041
   71  O  4  S   -0.000001   0.417644   0.207577  -0.000000  -0.000016
   72  O  4  X   -0.000000  -0.000633  -0.000314  -0.000004   0.000024
   73  O  4  Y   -0.000001   0.000478   0.000233  -0.000003  -0.000018
   74  O  4  Z    0.000000  -0.001331  -0.000635  -0.000001   0.000054
   75  O  4  S   -0.000011   0.018432   0.009160  -0.000001  -0.000101
   76  O  4  X    0.000004   0.000361   0.000160   0.000012  -0.000225
   77  O  4  Y    0.000003  -0.000273  -0.000112   0.000011   0.000169
   78  O  4  Z    0.000001   0.000786   0.000306   0.000002  -0.000492
   79  O  4  S    0.000105   0.002959   0.001099   0.000007  -0.000287
   80  O  4  X   -0.000055  -0.000512  -0.000038  -0.000025   0.000134
   81  O  4  Y   -0.000020   0.000354   0.000037  -0.000011  -0.000084
   82  O  4  Z   -0.000014  -0.000836  -0.000439  -0.000018   0.000292
   83  O  4  S   -0.000251  -0.003799  -0.001550  -0.000105  -0.001096
   84  O  4  X    0.000075   0.000507   0.000162   0.000066  -0.000054
   85  O  4  Y    0.000084  -0.000317  -0.000030   0.000078  -0.000086
   86  O  4  Z    0.000082   0.000704   0.000405   0.000062   0.000391
   87  O  4 XX   -0.000006  -0.005346  -0.002650  -0.000001   0.000041
   88  O  4 YY   -0.000009  -0.005363  -0.002636  -0.000003  -0.000003
   89  O  4 ZZ   -0.000010  -0.005459  -0.002600  -0.000001   0.000358
   90  O  4 XY   -0.000002  -0.000006   0.000019   0.000001  -0.000080
   91  O  4 XZ    0.000004  -0.000039  -0.000025   0.000004   0.000215
   92  O  4 YZ    0.000003   0.000033   0.000012  -0.000005  -0.000164
   93  N  5  S   -0.000002  -0.000002  -0.000005  -0.000001   0.558064
   94  N  5  S    0.000008   0.000014   0.000042   0.000005   0.462375
   95  N  5  X    0.000016  -0.000022  -0.000065   0.000008   0.000331
   96  N  5  Y    0.000007   0.000031   0.000033  -0.000005  -0.000178
   97  N  5  Z    0.000001  -0.000180   0.000065  -0.000001  -0.000019
   98  N  5  S    0.000025  -0.000050  -0.000149   0.000003   0.020277
   99  N  5  X   -0.000075   0.000078   0.000229  -0.000026  -0.000139
  100  N  5  Y   -0.000024  -0.000110  -0.000121   0.000027   0.000098
  101  N  5  Z   -0.000002   0.000615  -0.000223   0.000003   0.000010
  102  N  5  S   -0.000114  -0.000369  -0.001095  -0.000259   0.006067
  103  N  5  X    0.000191  -0.000209  -0.000612   0.000073  -0.000163
  104  N  5  Y    0.000112   0.000282   0.000323  -0.000122   0.000013
  105  N  5  Z    0.000010  -0.001544   0.000564  -0.000016   0.000002
  106  N  5  S    0.000479   0.001688   0.005027   0.000457  -0.002632
  107  N  5  X   -0.000116   0.000024   0.000054  -0.000081   0.001494
  108  N  5  Y   -0.000414  -0.000308  -0.000198  -0.000180  -0.000595
  109  N  5  Z   -0.000049   0.002143  -0.000748  -0.000015  -0.000059
  110  N  5 XX    0.000018   0.000015   0.000042   0.000020  -0.006703
  111  N  5 YY    0.000029   0.000044   0.000031   0.000019  -0.006643
  112  N  5 ZZ    0.000028   0.000142   0.000527   0.000002  -0.006883
  113  N  5 XY   -0.000004  -0.000037   0.000001   0.000006   0.000056
  114  N  5 XZ   -0.000000   0.000330  -0.000111   0.000000   0.000005
  115  N  5 YZ    0.000000  -0.000192   0.000002   0.000002   0.000028
  116  C  6  S   -0.000005  -0.000002  -0.000006  -0.000003  -0.000001
  117  C  6  S    0.000018   0.000008   0.000022   0.000011   0.000008
  118  C  6  X    0.000025  -0.000006  -0.000019   0.000004  -0.000104
  119  C  6  Y    0.000017   0.000010   0.000021   0.000039   0.000047
  120  C  6  Z    0.000002  -0.000021   0.000010   0.000004   0.000005
  121  C  6  S    0.000067   0.000048   0.000143   0.000007  -0.000084
  122  C  6  X   -0.000121   0.000039   0.000117  -0.000034   0.000275
  123  C  6  Y   -0.000128  -0.000053  -0.000129  -0.000139  -0.000163
  124  C  6  Z   -0.000013   0.000087  -0.000044  -0.000013  -0.000017
  125  C  6  S   -0.000544  -0.000521  -0.001557  -0.000452  -0.001492
  126  C  6  X    0.000096  -0.000062  -0.000194   0.000584  -0.000232
  127  C  6  Y    0.000191   0.000128   0.000509  -0.000091   0.000154
  128  C  6  Z    0.000018   0.000390  -0.000076  -0.000005   0.000018
  129  C  6  S   -0.003479   0.000628   0.001884  -0.001442   0.004828
  130  C  6  X    0.000997  -0.000284  -0.000843   0.000088   0.000612
  131  C  6  Y    0.000754  -0.000134  -0.000571   0.000679  -0.000359
  132  C  6  Z    0.000079  -0.000522   0.000113   0.000070  -0.000040
  133  C  6 XX    0.000132   0.000050   0.000148  -0.000050   0.000267
  134  C  6 YY    0.000036   0.000040   0.000099   0.000145  -0.000003
  135  C  6 ZZ    0.000025  -0.000003   0.000009   0.000050  -0.000112
  136  C  6 XY    0.000065  -0.000011  -0.000011   0.000073  -0.000242
  137  C  6 XZ    0.000006   0.000065  -0.000024   0.000007  -0.000025
  138  C  6 YZ    0.000001  -0.000027   0.000022   0.000011   0.000013
  139  C  7  S   -0.000004   0.000000   0.000001   0.000019   0.000001
  140  C  7  S    0.000004  -0.000002  -0.000004  -0.000066  -0.000002
  141  C  7  X    0.000114   0.000002   0.000006  -0.000010  -0.000018
  142  C  7  Y   -0.000054   0.000000  -0.000000   0.000105  -0.000011
  143  C  7  Z   -0.000005  -0.000000   0.000000   0.000010  -0.000001
  144  C  7  S   -0.000101  -0.000021  -0.000063   0.000014   0.000013
  145  C  7  X   -0.000292  -0.000013  -0.000038   0.000035   0.000126
  146  C  7  Y    0.000142  -0.000001  -0.000004  -0.000676   0.000060
  147  C  7  Z    0.000014  -0.000006   0.000001  -0.000067   0.000006
  148  C  7  S   -0.000355   0.000204   0.000617  -0.001246   0.000887
  149  C  7  X    0.001129   0.000193   0.000579  -0.000230  -0.000342
  150  C  7  Y   -0.000523   0.000024   0.000028   0.002175   0.000673
  151  C  7  Z   -0.000050  -0.000093   0.000036   0.000214   0.000065
  152  C  7  S    0.004475  -0.000879  -0.002631   0.002021  -0.000532
  153  C  7  X    0.000369  -0.000162  -0.000485   0.000649  -0.000356
  154  C  7  Y    0.001024  -0.000138  -0.000401   0.000166   0.000126
  155  C  7  Z    0.000102   0.000032  -0.000056   0.000017   0.000013
  156  C  7 XX    0.000184  -0.000004  -0.000012  -0.000239   0.000009
  157  C  7 YY   -0.000131  -0.000006  -0.000027   0.000588   0.000006
  158  C  7 ZZ    0.000030  -0.000015  -0.000036  -0.000064   0.000025
  159  C  7 XY   -0.000217  -0.000001  -0.000001  -0.000112   0.000080
  160  C  7 XZ   -0.000021   0.000006  -0.000002  -0.000011   0.000008
  161  C  7 YZ   -0.000019  -0.000016   0.000007   0.000075  -0.000002
  162  H  8  S   -0.000021  -0.000001  -0.000005   0.000005   0.000019
  163  H  8  S    0.000134   0.000125   0.000150  -0.000020   0.000364
  164  H  8  S    0.000084   0.000026  -0.000257  -0.000055   0.000052
  165  H  8  S   -0.000165  -0.000193   0.000169  -0.000217  -0.000760
  166  H  8  X   -0.000019  -0.000029   0.000019  -0.000010   0.000004
  167  H  8  Y   -0.000035  -0.000018  -0.000047   0.000038  -0.000049
  168  H  8  Z    0.000027  -0.000003   0.000005   0.000005   0.000072
  169  H  9  S   -0.000021  -0.000002  -0.000005   0.000005   0.000019
  170  H  9  S    0.000134  -0.000009   0.000196  -0.000023   0.000363
  171  H  9  S    0.000085  -0.000176  -0.000190  -0.000058   0.000051
  172  H  9  S   -0.000169   0.000256   0.000020  -0.000218  -0.000756
  173  H  9  X   -0.000019   0.000034  -0.000002  -0.000010   0.000004
  174  H  9  Y   -0.000029  -0.000013  -0.000047   0.000039  -0.000033
  175  H  9  Z   -0.000033  -0.000008  -0.000012   0.000003  -0.000080
  176  H 10  S    0.000104  -0.000003  -0.000008   0.000006  -0.000009
  177  H 10  S    0.000090   0.000012   0.000035  -0.000229   0.000050
  178  H 10  S    0.000616  -0.000091  -0.000271   0.000244  -0.000089
  179  H 10  S   -0.000139  -0.000016  -0.000049   0.000042  -0.000042
  180  H 10  X    0.000275   0.000004   0.000013  -0.000012   0.000022
  181  H 10  Y    0.000225  -0.000002  -0.000005  -0.000063  -0.000019
  182  H 10  Z    0.000023   0.000002  -0.000001  -0.000006  -0.000002

                      6          7          8          9         10
                  -10.3642   -10.2826    -1.2299    -1.1408    -1.0661
                     A          A          A          A          A   
    1  O  1  S   -0.000036  -0.000001  -0.002157  -0.089473  -0.000002
    2  O  1  S   -0.000041   0.000014  -0.003445  -0.143606  -0.000003
    3  O  1  X   -0.000008   0.000001   0.000892   0.017158  -0.000001
    4  O  1  Y    0.000022   0.000024  -0.000930  -0.040484  -0.000008
    5  O  1  Z    0.000002   0.000002  -0.000091  -0.003995   0.000062
    6  O  1  S   -0.000132   0.000082   0.009886   0.415640   0.000010
    7  O  1  X    0.000563   0.000030   0.001664   0.027370  -0.000002
    8  O  1  Y   -0.000398  -0.000099  -0.001642  -0.064143  -0.000028
    9  O  1  Z   -0.000039  -0.000010  -0.000162  -0.006330   0.000253
   10  O  1  S    0.001252  -0.000498   0.006121   0.296670  -0.000001
   11  O  1  X   -0.000105  -0.000409  -0.000273   0.016834   0.000003
   12  O  1  Y   -0.000461   0.000197  -0.000006  -0.026825   0.000027
   13  O  1  Z   -0.000046   0.000019   0.000003  -0.002638  -0.000232
   14  O  1  S   -0.008274  -0.000985  -0.006141  -0.071798   0.000037
   15  O  1  X   -0.000900  -0.001064  -0.008917  -0.007524  -0.000017
   16  O  1  Y    0.002060  -0.000387  -0.002796   0.010632  -0.000221
   17  O  1  Z    0.000203  -0.000042  -0.000284   0.001039   0.001835
   18  O  1 XX    0.000335   0.000024   0.000217   0.004510  -0.000000
   19  O  1 YY    0.000072   0.000062  -0.000023   0.000324   0.000005
   20  O  1 ZZ   -0.000177   0.000074  -0.000230  -0.008849  -0.000005
   21  O  1 XY   -0.000214  -0.000019  -0.000181  -0.002524  -0.000005
   22  O  1 XZ   -0.000021  -0.000002  -0.000017  -0.000235   0.000048
   23  O  1 YZ    0.000029  -0.000001   0.000024   0.001058  -0.000030
   24  O  2  S   -0.000088  -0.000001  -0.003529  -0.055766  -0.000008
   25  O  2  S   -0.000161   0.000014  -0.005614  -0.089257  -0.000013
   26  O  2  X   -0.000013  -0.000015   0.000438  -0.008535  -0.000000
   27  O  2  Y    0.000179  -0.000013   0.002958   0.043686  -0.000032
   28  O  2  Z    0.000018  -0.000001   0.000292   0.004316   0.000374
   29  O  2  S    0.000429   0.000011   0.015927   0.256356   0.000033
   30  O  2  X   -0.000063   0.000051   0.000775  -0.013530  -0.000001
   31  O  2  Y    0.000467   0.000078   0.004746   0.065907  -0.000010
   32  O  2  Z    0.000046   0.000008   0.000468   0.006512   0.000178
   33  O  2  S    0.000028   0.000445   0.010341   0.169544   0.000059
   34  O  2  X   -0.000079   0.000140   0.000297  -0.008355   0.000002
   35  O  2  Y    0.000185   0.000355   0.001589   0.023034  -0.000120
   36  O  2  Z    0.000018   0.000036   0.000157   0.002273   0.001375
   37  O  2  S   -0.003206   0.002548   0.003136  -0.038073   0.000019
   38  O  2  X    0.000490   0.001317  -0.002348  -0.001807   0.000009
   39  O  2  Y   -0.001733   0.000564   0.001543  -0.010665   0.000215
   40  O  2  Z   -0.000171   0.000054   0.000158  -0.001058  -0.002067
   41  O  2 XX   -0.000075  -0.000011  -0.000268  -0.005697  -0.000002
   42  O  2 YY    0.000057   0.000082   0.000716   0.008823  -0.000016
   43  O  2 ZZ   -0.000114   0.000067  -0.000391  -0.004879   0.000015
   44  O  2 XY   -0.000042   0.000028   0.000132  -0.004009  -0.000008
   45  O  2 XZ   -0.000004   0.000003   0.000013  -0.000398   0.000074
   46  O  2 YZ    0.000020   0.000002   0.000127   0.001578   0.000096
   47  O  3  S    0.000001  -0.000002  -0.058937   0.004066   0.079065
   48  O  3  S   -0.000003   0.000018  -0.094279   0.006507   0.127474
   49  O  3  X    0.000002   0.000018  -0.021001   0.000760   0.026903
   50  O  3  Y    0.000004  -0.000003   0.006307  -0.000412  -0.010168
   51  O  3  Z    0.000006  -0.000004   0.050977  -0.003353  -0.045214
   52  O  3  S   -0.000017   0.000124   0.272419  -0.019261  -0.373253
   53  O  3  X    0.000002  -0.000094  -0.032612   0.001264   0.041370
   54  O  3  Y   -0.000012   0.000018   0.009826  -0.000470  -0.015595
   55  O  3  Z   -0.000027   0.000043   0.079200  -0.005253  -0.069239
   56  O  3  S    0.000108  -0.000852   0.177133  -0.011899  -0.274845
   57  O  3  X   -0.000052   0.000536  -0.010107  -0.000157   0.018521
   58  O  3  Y    0.000015  -0.000120   0.002902  -0.000998  -0.008339
   59  O  3  Z    0.000172  -0.000441   0.026275  -0.001579  -0.025729
   60  O  3  S    0.000934   0.001949  -0.092053  -0.003563   0.167201
   61  O  3  X   -0.000857  -0.001332   0.007694  -0.000857  -0.023182
   62  O  3  Y    0.000161   0.000051  -0.000546   0.003901   0.009798
   63  O  3  Z   -0.000018   0.000460  -0.023339  -0.001911   0.030455
   64  O  3 XX   -0.000000   0.000024  -0.005160   0.000421   0.004265
   65  O  3 YY   -0.000019   0.000105  -0.006974   0.000309   0.006973
   66  O  3 ZZ   -0.000014   0.000077   0.009633  -0.000743  -0.003842
   67  O  3 XY    0.000005   0.000048  -0.000248   0.000001   0.000850
   68  O  3 XZ   -0.000004   0.000026  -0.008195   0.000327   0.009096
   69  O  3 YZ   -0.000000  -0.000008   0.002524  -0.000169  -0.003686
   70  O  4  S    0.000001  -0.000002  -0.058932   0.004071  -0.079068
   71  O  4  S   -0.000003   0.000018  -0.094271   0.006516  -0.127480
   72  O  4  X    0.000002   0.000018  -0.021204   0.000776  -0.027082
   73  O  4  Y    0.000005  -0.000004   0.016329  -0.001073   0.018965
   74  O  4  Z   -0.000005   0.000004  -0.048607   0.003204  -0.042172
   75  O  4  S   -0.000017   0.000124   0.272401  -0.019292   0.373268
   76  O  4  X    0.000002  -0.000094  -0.032926   0.001291  -0.041645
   77  O  4  Y   -0.000018   0.000026   0.025395  -0.001511   0.029062
   78  O  4  Z    0.000024  -0.000038  -0.075513   0.005055  -0.064577
   79  O  4  S    0.000105  -0.000849   0.177085  -0.011883   0.274875
   80  O  4  X   -0.000052   0.000538  -0.010200  -0.000158  -0.018615
   81  O  4  Y    0.000049  -0.000205   0.008074  -0.001283   0.013300
   82  O  4  Z   -0.000165   0.000405  -0.025122   0.001337  -0.023474
   83  O  4  S    0.000937   0.001950  -0.092047  -0.003636  -0.167383
   84  O  4  X   -0.000859  -0.001333   0.007773  -0.000858   0.023322
   85  O  4  Y    0.000153   0.000144  -0.005173   0.003412  -0.015680
   86  O  4  Z    0.000049  -0.000433   0.022730   0.002673   0.027840
   87  O  4 XX    0.000000   0.000024  -0.005101   0.000418  -0.004204
   88  O  4 YY   -0.000019   0.000101  -0.005461   0.000208  -0.005300
   89  O  4 ZZ   -0.000014   0.000081   0.008064  -0.000643   0.002104
   90  O  4 XY    0.000004   0.000052  -0.001900   0.000068  -0.002669
   91  O  4 XZ    0.000005  -0.000016   0.008045  -0.000326   0.008777
   92  O  4 YZ   -0.000001   0.000013  -0.006056   0.000393  -0.005818
   93  N  5  S    0.000000  -0.000032  -0.091304   0.003831  -0.000002
   94  N  5  S   -0.000001  -0.000021  -0.143157   0.006140  -0.000003
   95  N  5  X   -0.000009   0.000080   0.031903  -0.005897   0.000288
   96  N  5  Y   -0.000007  -0.000045  -0.017027   0.001700  -0.014137
   97  N  5  Z   -0.000001  -0.000005  -0.001785   0.000177   0.140478
   98  N  5  S    0.000028  -0.000198   0.412532  -0.017870   0.000007
   99  N  5  X   -0.000021  -0.000572   0.050630  -0.011057   0.000438
  100  N  5  Y    0.000014   0.000319  -0.027326   0.002394  -0.021389
  101  N  5  Z    0.000001   0.000033  -0.002866   0.000254   0.212547
  102  N  5  S    0.000016   0.000563   0.206234  -0.008232   0.000006
  103  N  5  X   -0.000270   0.000663  -0.005041   0.000216   0.000120
  104  N  5  Y    0.000194  -0.000414   0.003926   0.001668  -0.005486
  105  N  5  Z    0.000022  -0.000045   0.000425   0.000148   0.054487
  106  N  5  S   -0.002336  -0.014725   0.087781   0.019299   0.000207
  107  N  5  X    0.001739   0.004758   0.030819   0.000948   0.000252
  108  N  5  Y   -0.001078  -0.000931  -0.018777  -0.015426  -0.011927
  109  N  5  Z   -0.000114  -0.000105  -0.001926  -0.001519   0.118540
  110  N  5 XX   -0.000023   0.000460  -0.004991   0.001550   0.000078
  111  N  5 YY    0.000025   0.000012  -0.012165   0.000881   0.002062
  112  N  5 ZZ    0.000018  -0.000089   0.021551  -0.001555  -0.002145
  113  N  5 XY   -0.000048  -0.000354  -0.006017   0.000261  -0.002272
  114  N  5 XZ   -0.000005  -0.000037  -0.000541   0.000017   0.022318
  115  N  5 YZ    0.000001   0.000013  -0.003945   0.000286  -0.011709
  116  C  6  S    0.000828   0.563667  -0.015319  -0.010022  -0.000002
  117  C  6  S    0.000683   0.459319  -0.023137  -0.015022  -0.000004
  118  C  6  X    0.000085   0.000449   0.015108  -0.009382   0.000020
  119  C  6  Y    0.000078  -0.000646  -0.008357  -0.005940  -0.000844
  120  C  6  Z    0.000008  -0.000066  -0.000874  -0.000603   0.008374
  121  C  6  S    0.000197   0.021700   0.060054   0.040756   0.000007
  122  C  6  X   -0.000740  -0.000260   0.027037  -0.017776   0.000030
  123  C  6  Y   -0.000684   0.000583  -0.017352  -0.014931  -0.001358
  124  C  6  Z   -0.000070   0.000060  -0.001805  -0.001501   0.013490
  125  C  6  S   -0.002079   0.015518  -0.011492   0.005478   0.000024
  126  C  6  X    0.000764   0.000392  -0.001178   0.000247   0.000016
  127  C  6  Y    0.000916  -0.001938   0.003466   0.001577  -0.000511
  128  C  6  Z    0.000094  -0.000197   0.000350   0.000166   0.004801
  129  C  6  S   -0.004915   0.025897   0.143492  -0.108612   0.000243
  130  C  6  X    0.002141  -0.000816  -0.012113   0.028295  -0.000125
  131  C  6  Y    0.001091  -0.002769  -0.022418   0.034178   0.001349
  132  C  6  Z    0.000123  -0.000289  -0.002336   0.003493  -0.014078
  133  C  6 XX    0.000451  -0.009144   0.008335   0.003068   0.000016
  134  C  6 YY    0.000381  -0.009029  -0.000319   0.002709   0.000313
  135  C  6 ZZ   -0.000011  -0.008946  -0.004697  -0.001142  -0.000330
  136  C  6 XY    0.000507  -0.000082  -0.006903   0.005382  -0.000439
  137  C  6 XZ    0.000051  -0.000008  -0.000727   0.000540   0.004314
  138  C  6 YZ    0.000046  -0.000010   0.000534   0.000458  -0.001789
  139  C  7  S    0.563775  -0.000878  -0.004920  -0.064945  -0.000002
  140  C  7  S    0.459530  -0.000712  -0.007512  -0.100322  -0.000003
  141  C  7  X   -0.000643  -0.000092   0.002578  -0.034274  -0.000003
  142  C  7  Y    0.000321  -0.000086  -0.000862  -0.022557  -0.000085
  143  C  7  Z    0.000031  -0.000009  -0.000087  -0.002258   0.000762
  144  C  7  S    0.021172   0.000178   0.018977   0.264830   0.000013
  145  C  7  X    0.000421   0.000810   0.004974  -0.056343  -0.000006
  146  C  7  Y   -0.000675   0.000796   0.000634  -0.022171  -0.000182
  147  C  7  Z   -0.000067   0.000080   0.000064  -0.002241   0.001725
  148  C  7  S    0.013943  -0.003500   0.017864   0.094711  -0.000074
  149  C  7  X   -0.000088  -0.003006   0.003987   0.006504  -0.000030
  150  C  7  Y    0.000525  -0.000069   0.007282   0.001442   0.000226
  151  C  7  Z    0.000052  -0.000010   0.000713   0.000151  -0.001963
  152  C  7  S    0.009397  -0.013281  -0.085028   0.175298  -0.000292
  153  C  7  X   -0.002309  -0.004523  -0.020149   0.003134  -0.000082
  154  C  7  Y    0.001608  -0.002092  -0.010998   0.029263  -0.000118
  155  C  7  Z    0.000156  -0.000207  -0.001108   0.002922   0.000626
  156  C  7 XX   -0.008876   0.000511   0.001182   0.005037   0.000001
  157  C  7 YY   -0.008490   0.000299   0.000416   0.007561  -0.000025
  158  C  7 ZZ   -0.008403   0.000054  -0.001527  -0.020018   0.000025
  159  C  7 XY   -0.000124   0.000539   0.000964  -0.016109  -0.000065
  160  C  7 XZ   -0.000013   0.000054   0.000098  -0.001571   0.000637
  161  C  7 YZ   -0.000010   0.000029   0.000223   0.003169   0.000138
  162  H  8  S    0.000073   0.000401   0.005313   0.003963  -0.003248
  163  H  8  S   -0.000024   0.000179   0.011941   0.005620  -0.002582
  164  H  8  S    0.000779  -0.002727  -0.006776   0.000520   0.004383
  165  H  8  S   -0.000219  -0.001627  -0.010142  -0.010801  -0.001659
  166  H  8  X    0.000086   0.000019   0.000705  -0.000779  -0.000309
  167  H  8  Y    0.000052  -0.000253  -0.002205  -0.001038   0.000478
  168  H  8  Z   -0.000000   0.000390   0.001901   0.001221  -0.000015
  169  H  9  S    0.000073   0.000401   0.005313   0.003948   0.003258
  170  H  9  S   -0.000021   0.000177   0.011939   0.005598   0.002590
  171  H  9  S    0.000767  -0.002725  -0.006761   0.000483  -0.004391
  172  H  9  S   -0.000234  -0.001618  -0.010035  -0.010873   0.001689
  173  H  9  X    0.000086   0.000018   0.000698  -0.000776   0.000309
  174  H  9  Y    0.000051  -0.000169  -0.001773  -0.000764  -0.000463
  175  H  9  Z    0.000010  -0.000434  -0.002308  -0.001396  -0.000114
  176  H 10  S   -0.000015   0.000023   0.001155   0.064358   0.000002
  177  H 10  S   -0.000669  -0.000121   0.001998   0.050555   0.000006
  178  H 10  S    0.002705  -0.001260  -0.006990   0.013754  -0.000057
  179  H 10  S   -0.001932  -0.000659  -0.002099  -0.010757  -0.000016
  180  H 10  X   -0.000256  -0.000070   0.000593   0.016127   0.000000
  181  H 10  Y   -0.000046  -0.000032   0.000027   0.009281  -0.000000
  182  H 10  Z   -0.000005  -0.000003   0.000003   0.000936   0.000014

                     11         12         13         14         15
                   -1.0582    -0.8604    -0.7151    -0.6275    -0.5782
                     A          A          A          A          A   
    1  O  1  S    0.070851   0.012428   0.017784   0.005833   0.002602
    2  O  1  S    0.114286   0.020231   0.029204   0.009769   0.004499
    3  O  1  X   -0.000449   0.028544   0.133051   0.131516   0.085488
    4  O  1  Y    0.022142   0.013935   0.023156  -0.003655  -0.012055
    5  O  1  Z    0.002195   0.001409   0.002438  -0.000274  -0.001112
    6  O  1  S   -0.333188  -0.059925  -0.087616  -0.027288  -0.011983
    7  O  1  X   -0.000417   0.041857   0.193562   0.191676   0.125637
    8  O  1  Y    0.034332   0.020786   0.034003  -0.005781  -0.018855
    9  O  1  Z    0.003404   0.002102   0.003579  -0.000445  -0.001748
   10  O  1  S   -0.250709  -0.057233  -0.082427  -0.031226  -0.020600
   11  O  1  X   -0.012924   0.018513   0.109424   0.113148   0.077630
   12  O  1  Y    0.007680   0.014860   0.022598  -0.003363  -0.009538
   13  O  1  Z    0.000749   0.001489   0.002358  -0.000264  -0.000870
   14  O  1  S    0.017230  -0.014078  -0.011738  -0.030718  -0.043260
   15  O  1  X    0.004399  -0.014649  -0.017985   0.007312   0.010401
   16  O  1  Y    0.002866  -0.005288  -0.006941   0.010132   0.015626
   17  O  1  Z    0.000294  -0.000553  -0.000715   0.001019   0.001531
   18  O  1 XX   -0.003235   0.002803   0.006408   0.003006   0.000676
   19  O  1 YY    0.002957  -0.002259  -0.003912  -0.000360   0.002259
   20  O  1 ZZ    0.006111   0.001040   0.001100   0.000630   0.000068
   21  O  1 XY   -0.001968  -0.001868  -0.012075  -0.013252  -0.009437
   22  O  1 XZ   -0.000205  -0.000183  -0.001189  -0.001315  -0.000935
   23  O  1 YZ   -0.000367  -0.000384  -0.000593  -0.000124   0.000243
   24  O  2  S   -0.091951   0.019913   0.019264   0.013090  -0.017714
   25  O  2  S   -0.148163   0.032332   0.031403   0.021569  -0.029084
   26  O  2  X   -0.002381   0.010852   0.002518  -0.015701  -0.055292
   27  O  2  Y    0.062038  -0.002737   0.012565   0.016734  -0.036241
   28  O  2  Z    0.006138  -0.000259   0.001264   0.001597  -0.003619
   29  O  2  S    0.425764  -0.095451  -0.093993  -0.063851   0.088865
   30  O  2  X   -0.002949   0.016722   0.003432  -0.023931  -0.081632
   31  O  2  Y    0.089001  -0.004872   0.014417   0.023575  -0.050985
   32  O  2  Z    0.008806  -0.000466   0.001460   0.002243  -0.005094
   33  O  2  S    0.310248  -0.076456  -0.093139  -0.075310   0.097441
   34  O  2  X    0.001780   0.008350   0.001358  -0.012793  -0.057285
   35  O  2  Y    0.037391  -0.000865   0.007398   0.009453  -0.027585
   36  O  2  Z    0.003702  -0.000073   0.000745   0.000882  -0.002760
   37  O  2  S   -0.032421   0.016699  -0.005833  -0.012769   0.042173
   38  O  2  X   -0.005657   0.006591  -0.000888   0.008107   0.012911
   39  O  2  Y   -0.002682  -0.001667  -0.002968  -0.001346   0.010821
   40  O  2  Z   -0.000258  -0.000200  -0.000298  -0.000132   0.001077
   41  O  2 XX   -0.010642   0.001167   0.000147   0.001047   0.001163
   42  O  2 YY    0.010310  -0.000608  -0.000058   0.001635  -0.004550
   43  O  2 ZZ   -0.008513   0.001186   0.000772   0.000201   0.001051
   44  O  2 XY   -0.000360   0.003139   0.000305  -0.004031  -0.008743
   45  O  2 XZ   -0.000039   0.000311   0.000030  -0.000398  -0.000864
   46  O  2 YZ    0.002171  -0.000203  -0.000090   0.000153  -0.000653
   47  O  3  S    0.002697   0.030445  -0.032995   0.041945   0.003314
   48  O  3  S    0.004365   0.049459  -0.054014   0.069122   0.005439
   49  O  3  X   -0.000026  -0.013596   0.023686  -0.026664   0.032219
   50  O  3  Y   -0.000414   0.007624  -0.014259  -0.001584   0.064258
   51  O  3  Z   -0.002082  -0.010502  -0.016856   0.071888   0.013753
   52  O  3  S   -0.012619  -0.148121   0.161985  -0.205252  -0.016586
   53  O  3  X    0.000061  -0.019836   0.033970  -0.038034   0.049324
   54  O  3  Y   -0.000428   0.011000  -0.021075  -0.003222   0.097081
   55  O  3  Z   -0.003180  -0.018063  -0.021878   0.102624   0.020088
   56  O  3  S   -0.011547  -0.129866   0.169736  -0.250699  -0.019058
   57  O  3  X    0.000787  -0.005090   0.013771  -0.013983   0.029664
   58  O  3  Y   -0.000439   0.004380  -0.009263  -0.004623   0.061511
   59  O  3  Z   -0.001698  -0.008720  -0.006465   0.042140   0.011834
   60  O  3  S    0.003475   0.080145  -0.048645  -0.002487   0.006747
   61  O  3  X    0.000226  -0.015124   0.002593  -0.003650   0.001097
   62  O  3  Y    0.001533  -0.002072  -0.000325  -0.004302  -0.000075
   63  O  3  Z    0.001244   0.020088  -0.014185   0.001988   0.004369
   64  O  3 XX    0.000448   0.004534  -0.003329   0.001203  -0.004777
   65  O  3 YY    0.000301   0.001816  -0.000821  -0.001397   0.002626
   66  O  3 ZZ   -0.000317  -0.003191  -0.001141   0.009991   0.002543
   67  O  3 XY    0.000027  -0.001932   0.002170  -0.000161  -0.004204
   68  O  3 XZ    0.000133  -0.001768   0.003809  -0.005181   0.004661
   69  O  3 YZ   -0.000064   0.001271  -0.002608   0.000042   0.010415
   70  O  4  S    0.002704   0.030444  -0.033013   0.041912   0.003314
   71  O  4  S    0.004378   0.049457  -0.054044   0.069068   0.005438
   72  O  4  X   -0.000015  -0.013550   0.023764  -0.026916   0.032185
   73  O  4  Y   -0.000823   0.005374  -0.017328   0.012740   0.065715
   74  O  4  Z    0.001962   0.011866   0.013580  -0.070637  -0.000802
   75  O  4  S   -0.012659  -0.148120   0.162077  -0.205092  -0.016590
   76  O  4  X    0.000076  -0.019758   0.034073  -0.038392   0.049280
   77  O  4  Y   -0.001054   0.007173  -0.025004   0.017244   0.099143
   78  O  4  Z    0.003036   0.019972   0.017103  -0.101030  -0.000537
   79  O  4  S   -0.011509  -0.129838   0.169853  -0.250476  -0.019022
   80  O  4  X    0.000791  -0.005053   0.013792  -0.014130   0.029615
   81  O  4  Y   -0.000766   0.002554  -0.010362   0.003851   0.062646
   82  O  4  Z    0.001562   0.009436   0.004414  -0.042167   0.000538
   83  O  4  S    0.003362   0.079998  -0.048635  -0.002544   0.006928
   84  O  4  X    0.000247  -0.015202   0.002639  -0.003659   0.001109
   85  O  4  Y    0.001736   0.001965  -0.003118  -0.003832   0.000812
   86  O  4  Z   -0.000912  -0.020020   0.013831  -0.002789  -0.004292
   87  O  4 XX    0.000447   0.004544  -0.003357   0.001234  -0.004815
   88  O  4 YY    0.000255   0.002044  -0.001714  -0.000933   0.006140
   89  O  4 ZZ   -0.000271  -0.003432  -0.000224   0.009487  -0.000941
   90  O  4 XY    0.000055  -0.002244   0.002896  -0.001196  -0.003235
   91  O  4 XZ   -0.000129   0.001310  -0.003287   0.005081  -0.005383
   92  O  4 YZ    0.000198  -0.000031   0.002460  -0.002598  -0.009557
   93  N  5  S    0.001228  -0.027544   0.046416  -0.052216  -0.003277
   94  N  5  S    0.001955  -0.043579   0.074379  -0.084130  -0.005265
   95  N  5  X   -0.006197  -0.099245   0.068793   0.006623   0.076661
   96  N  5  Y    0.000600   0.049248  -0.047437  -0.024590   0.130863
   97  N  5  Z    0.000066   0.005162  -0.004925  -0.002514   0.013010
   98  N  5  S   -0.006746   0.126767  -0.228222   0.268322   0.018100
   99  N  5  X   -0.008987  -0.150003   0.098784   0.015402   0.118679
  100  N  5  Y    0.001668   0.074692  -0.070452  -0.041076   0.203137
  101  N  5  Z    0.000181   0.007826  -0.007305  -0.004207   0.020194
  102  N  5  S   -0.002777   0.125783  -0.216052   0.273411   0.009149
  103  N  5  X   -0.005549  -0.079082   0.064432   0.010475   0.087961
  104  N  5  Y   -0.004433   0.037068  -0.041930  -0.026702   0.146144
  105  N  5  Z   -0.000490   0.003885  -0.004393  -0.002767   0.014522
  106  N  5  S    0.011857  -0.247885   0.129019  -0.023751  -0.045901
  107  N  5  X   -0.004399   0.029300   0.012562   0.003449  -0.013765
  108  N  5  Y    0.001408   0.004352  -0.001990   0.015877  -0.009935
  109  N  5  Z    0.000200   0.000473  -0.000178   0.001652  -0.001151
  110  N  5 XX    0.001009   0.008954  -0.000790   0.000473   0.000239
  111  N  5 YY    0.000299   0.001681  -0.001635  -0.001018  -0.000592
  112  N  5 ZZ   -0.001497  -0.009096   0.002383   0.001542   0.001052
  113  N  5 XY    0.000429  -0.004559   0.001801   0.001171  -0.000342
  114  N  5 XZ    0.000035  -0.000500   0.000196   0.000134  -0.000034
  115  N  5 YZ    0.000212   0.001276  -0.000479  -0.000309  -0.000196
  116  C  6  S   -0.002830  -0.092388  -0.011588   0.043907  -0.005725
  117  C  6  S   -0.004312  -0.143528  -0.017956   0.069345  -0.009410
  118  C  6  X    0.001467   0.014772  -0.099514   0.017594   0.042540
  119  C  6  Y   -0.006214  -0.019506   0.002010  -0.058171   0.111884
  120  C  6  Z   -0.000615  -0.002034   0.000278  -0.006058   0.011132
  121  C  6  S    0.011351   0.385332   0.047997  -0.188612   0.021106
  122  C  6  X    0.002989   0.026144  -0.151125   0.023752   0.067570
  123  C  6  Y   -0.010411  -0.040912  -0.000362  -0.083206   0.169197
  124  C  6  Z   -0.001021  -0.004233   0.000082  -0.008673   0.016844
  125  C  6  S   -0.004240   0.194575   0.051960  -0.163655   0.050655
  126  C  6  X    0.010429   0.002575  -0.045246   0.006184   0.030208
  127  C  6  Y   -0.004854   0.001994  -0.000882  -0.042739   0.080989
  128  C  6  Z   -0.000398   0.000205  -0.000101  -0.004476   0.008058
  129  C  6  S   -0.034713   0.190622   0.090410  -0.123011   0.159979
  130  C  6  X   -0.009006   0.009713  -0.044921   0.013985   0.018299
  131  C  6  Y    0.013286  -0.013929  -0.023488   0.020207  -0.033543
  132  C  6  Z    0.001377  -0.001546  -0.002460   0.001999  -0.003391
  133  C  6 XX   -0.004224   0.008898  -0.006507   0.013954   0.003128
  134  C  6 YY    0.004866  -0.001824   0.003524   0.001346  -0.016906
  135  C  6 ZZ   -0.000117  -0.008433   0.003622  -0.010654   0.009050
  136  C  6 XY    0.000991  -0.004423   0.020768  -0.004184  -0.002508
  137  C  6 XZ    0.000092  -0.000476   0.002145  -0.000453  -0.000253
  138  C  6 YZ    0.000586   0.000801  -0.000040   0.001437  -0.003097
  139  C  7  S   -0.029744  -0.025232  -0.055383  -0.028876   0.017460
  140  C  7  S   -0.046228  -0.038809  -0.087004  -0.045899   0.027485
  141  C  7  X    0.043836   0.040623  -0.000932  -0.062348  -0.113617
  142  C  7  Y   -0.100067   0.054056   0.079003   0.021830  -0.009049
  143  C  7  Z   -0.009864   0.005401   0.007879   0.002011  -0.000997
  144  C  7  S    0.123263   0.109806   0.253562   0.139633  -0.081692
  145  C  7  X    0.064489   0.063819  -0.007930  -0.096940  -0.167618
  146  C  7  Y   -0.131684   0.079484   0.112138   0.031402  -0.007907
  147  C  7  Z   -0.012975   0.007941   0.011179   0.002871  -0.000932
  148  C  7  S    0.041855   0.081729   0.160708   0.102753  -0.065954
  149  C  7  X   -0.003280   0.011358   0.007207  -0.032670  -0.088613
  150  C  7  Y    0.014033   0.029162   0.038636   0.001353  -0.003231
  151  C  7  Z    0.001370   0.002914   0.003883   0.000037  -0.000373
  152  C  7  S    0.017788  -0.062786  -0.117716   0.101944  -0.108256
  153  C  7  X    0.026494  -0.020368  -0.028438   0.011447  -0.086722
  154  C  7  Y   -0.019662  -0.004516  -0.022424   0.010582  -0.014459
  155  C  7  Z   -0.001951  -0.000416  -0.002247   0.001073  -0.001438
  156  C  7 XX   -0.026231   0.007418   0.000408   0.008868  -0.001805
  157  C  7 YY    0.023601   0.002118   0.010533  -0.002270   0.004055
  158  C  7 ZZ   -0.008625  -0.002219  -0.006893  -0.005223  -0.001294
  159  C  7 XY    0.007131   0.008672  -0.007312  -0.017516  -0.004440
  160  C  7 XZ    0.000687   0.000874  -0.000709  -0.001736  -0.000440
  161  C  7 YZ    0.003724   0.000512   0.002018   0.000315   0.000600
  162  H  8  S    0.000075   0.058182   0.014365  -0.066014   0.051001
  163  H  8  S   -0.001042   0.071199   0.016443  -0.082779   0.065888
  164  H  8  S   -0.000213  -0.017899  -0.004968   0.004867   0.007759
  165  H  8  S    0.002449  -0.016228   0.006829   0.000806   0.002506
  166  H  8  X    0.000210   0.000359  -0.004388  -0.000394   0.002355
  167  H  8  Y    0.000507  -0.009654  -0.002113   0.004477   0.000458
  168  H  8  Z   -0.000235   0.010861   0.001609  -0.008490   0.007422
  169  H  9  S    0.000097   0.058149   0.014280  -0.066116   0.050732
  170  H  9  S   -0.001082   0.071160   0.016382  -0.082908   0.065521
  171  H  9  S   -0.000284  -0.017901  -0.004928   0.004905   0.007790
  172  H  9  S    0.002386  -0.016089   0.006995   0.000828   0.002427
  173  H  9  X    0.000207   0.000317  -0.004387  -0.000364   0.002334
  174  H  9  Y    0.000454  -0.007254  -0.001738   0.002678   0.001980
  175  H  9  Z    0.000337  -0.012583  -0.001985   0.009224  -0.007168
  176  H 10  S   -0.055252  -0.028144  -0.095174  -0.079924  -0.048151
  177  H 10  S   -0.052540  -0.024612  -0.106216  -0.101304  -0.059056
  178  H 10  S    0.007843  -0.011245  -0.027967  -0.004333  -0.004390
  179  H 10  S    0.003193  -0.004823  -0.012082  -0.006115  -0.022703
  180  H 10  X   -0.012768  -0.004545  -0.012161  -0.006781  -0.001716
  181  H 10  Y   -0.010710  -0.003535  -0.013996  -0.013845  -0.009842
  182  H 10  Z   -0.001074  -0.000354  -0.001399  -0.001383  -0.000977

                     16         17         18         19         20
                   -0.5562    -0.5492    -0.5218    -0.5094    -0.4959
                     A          A          A          A          A   
    1  O  1  S   -0.004721   0.000051  -0.025726  -0.000069   0.021284
    2  O  1  S   -0.007969   0.000085  -0.042462  -0.000113   0.035513
    3  O  1  X   -0.071941   0.000331   0.064410   0.000342   0.025316
    4  O  1  Y    0.040078  -0.004629   0.113638  -0.009327  -0.126597
    5  O  1  Z    0.004172   0.042924   0.011112   0.095800  -0.012765
    6  O  1  S    0.021614  -0.000240   0.130363   0.000368  -0.105228
    7  O  1  X   -0.105194   0.000487   0.093200   0.000502   0.038534
    8  O  1  Y    0.058874  -0.006797   0.164518  -0.013730  -0.184724
    9  O  1  Z    0.006130   0.063073   0.016083   0.140942  -0.018628
   10  O  1  S    0.032245  -0.000339   0.157795   0.000327  -0.158845
   11  O  1  X   -0.065389   0.000256   0.064884   0.000261   0.021671
   12  O  1  Y    0.041827  -0.005590   0.123572  -0.011601  -0.133410
   13  O  1  Z    0.004407   0.052271   0.012047   0.118968  -0.013508
   14  O  1  S    0.019222  -0.000198   0.038621  -0.000043  -0.066136
   15  O  1  X   -0.015704   0.000154  -0.017682  -0.000041   0.015511
   16  O  1  Y   -0.012331   0.000491  -0.005071  -0.000242   0.008805
   17  O  1  Z   -0.001291  -0.003915  -0.000516   0.002211   0.000896
   18  O  1 XX    0.000416  -0.000011   0.003196  -0.000002  -0.002048
   19  O  1 YY   -0.003756   0.000606  -0.010136   0.001230   0.012027
   20  O  1 ZZ    0.000198  -0.000569   0.002855  -0.001222  -0.002320
   21  O  1 XY    0.008630  -0.000383  -0.002564  -0.000622  -0.005383
   22  O  1 XZ    0.000877   0.003385  -0.000268   0.005971  -0.000547
   23  O  1 YZ   -0.000471  -0.003294  -0.001487  -0.007173   0.001671
   24  O  2  S   -0.012708   0.000129  -0.050761  -0.000158   0.003739
   25  O  2  S   -0.021150   0.000214  -0.084252  -0.000262   0.006293
   26  O  2  X    0.029021  -0.000234   0.026504  -0.000127  -0.079197
   27  O  2  Y   -0.027708  -0.003332  -0.170389  -0.008146  -0.002504
   28  O  2  Z   -0.002472   0.036858  -0.017024   0.075935  -0.000539
   29  O  2  S    0.061249  -0.000620   0.248182   0.000774  -0.017836
   30  O  2  X    0.043474  -0.000348   0.036289  -0.000201  -0.114927
   31  O  2  Y   -0.041356  -0.005023  -0.242638  -0.012051  -0.001329
   32  O  2  Z   -0.003688   0.055489  -0.024254   0.112837  -0.000561
   33  O  2  S    0.090331  -0.000938   0.368343   0.001204  -0.029114
   34  O  2  X    0.026314  -0.000221   0.023639  -0.000133  -0.077942
   35  O  2  Y   -0.015456  -0.003583  -0.126366  -0.008658  -0.007234
   36  O  2  Z   -0.001257   0.038012  -0.012685   0.082613  -0.001032
   37  O  2  S    0.034860  -0.000360   0.080977   0.000248  -0.022610
   38  O  2  X   -0.003331   0.000024  -0.012318  -0.000038   0.001229
   39  O  2  Y    0.004554   0.000154   0.005728   0.000894   0.004979
   40  O  2  Z    0.000405  -0.002463   0.000585  -0.008964   0.000536
   41  O  2 XX   -0.001169   0.000009   0.001976   0.000016   0.002768
   42  O  2 YY   -0.004245  -0.000989  -0.021670  -0.001959  -0.000065
   43  O  2 ZZ    0.000090   0.001035   0.003077   0.001898  -0.000079
   44  O  2 XY    0.005405   0.000003   0.002410   0.000103  -0.009383
   45  O  2 XZ    0.000530  -0.000457   0.000239  -0.001295  -0.000924
   46  O  2 YZ   -0.000454   0.006000  -0.002882   0.010892  -0.000037
   47  O  3  S    0.028917  -0.036973  -0.002937   0.023568   0.001787
   48  O  3  S    0.048044  -0.061427  -0.004944   0.039267   0.002997
   49  O  3  X    0.023033   0.070969  -0.030108  -0.051239  -0.037434
   50  O  3  Y   -0.020850  -0.029132  -0.033873   0.018150  -0.086827
   51  O  3  Z    0.108992  -0.083588  -0.021397   0.096813   0.005303
   52  O  3  S   -0.140115   0.180842   0.013888  -0.112661  -0.008379
   53  O  3  X    0.035324   0.103371  -0.044655  -0.074749  -0.056387
   54  O  3  Y   -0.031090  -0.042667  -0.050864   0.026663  -0.129943
   55  O  3  Z    0.159304  -0.119732  -0.031907   0.139243   0.007978
   56  O  3  S   -0.205553   0.274577   0.024995  -0.181093  -0.013466
   57  O  3  X    0.032965   0.051583  -0.032451  -0.037560  -0.040789
   58  O  3  Y   -0.023189  -0.021648  -0.035421   0.012900  -0.092931
   59  O  3  Z    0.075486  -0.048075  -0.015837   0.076994   0.000276
   60  O  3  S   -0.068045   0.008771  -0.001403  -0.012606  -0.018209
   61  O  3  X   -0.005837   0.000570   0.007949  -0.005144   0.014287
   62  O  3  Y    0.001140  -0.001586   0.004896   0.001261   0.002779
   63  O  3  Z   -0.012340   0.002297  -0.000598   0.005515   0.000761
   64  O  3 XX   -0.005262  -0.004773   0.003346   0.001532   0.003693
   65  O  3 YY   -0.002197   0.001132  -0.001114  -0.001871  -0.002909
   66  O  3 ZZ    0.017359  -0.008343  -0.003902   0.008997   0.000102
   67  O  3 XY    0.002049   0.003716   0.001542  -0.001747   0.004128
   68  O  3 XZ    0.000742   0.009033  -0.003348  -0.007903  -0.005083
   69  O  3 YZ   -0.002039  -0.003608  -0.005197   0.002997  -0.011940
   70  O  4  S    0.029135   0.036824  -0.002668  -0.023603   0.001794
   71  O  4  S    0.048406   0.061179  -0.004497  -0.039326   0.003010
   72  O  4  X    0.022162  -0.071450  -0.030609   0.051227  -0.037504
   73  O  4  Y    0.001542   0.045238  -0.037088  -0.037426  -0.084021
   74  O  4  Z   -0.111447  -0.075180   0.013500   0.091261  -0.022393
   75  O  4  S   -0.141189  -0.180129   0.012592   0.112827  -0.008416
   76  O  4  X    0.034050  -0.104067  -0.045385   0.074715  -0.056495
   77  O  4  Y    0.001656   0.065720  -0.055662  -0.054403  -0.125735
   78  O  4  Z   -0.163009  -0.107470   0.020109   0.131155  -0.033551
[...]

    1             0.470491   0.904586   0.950093   0.074335   0.003804
    2             0.344185   0.456154   0.757297   0.105861   0.001194
    3             0.042548   0.023142   0.094768   0.889160   0.782066
    4             0.042307   0.023205   0.094944   0.888625   0.794596
    5             0.014256   0.013517   0.007570   0.026811   0.183478
    6             0.477340   0.207843   0.001148   0.003897   0.199124
    7             0.283093   0.220618   0.077426   0.009264   0.009473
    8             0.160211   0.020031   0.004003   0.000646   0.011182
    9             0.160904   0.019582   0.004016   0.000710   0.010731
   10             0.004665   0.111322   0.008735   0.000691   0.004352

                     26         27

                  2.000000   2.000000

    1             0.016534   0.201476
    2            -0.000122   1.478100
    3             0.923816   0.000362
    4             0.911040   0.000370
    5             0.065607   0.023783
    6             0.044138   0.130101
    7             0.000723   0.149185
    8             0.018918   0.012168
    9             0.019141   0.012226
   10             0.000205  -0.007771

     ATOMIC SPIN POPULATION (ALPHA MINUS BETA)
       ATOM         MULL.POP.                    LOW.POP.
    1 O             0.000000                     0.000000
    2 O             0.000000                     0.000000
    3 O             0.000000                     0.000000
    4 O             0.000000                     0.000000
    5 N             0.000000                     0.000000
    6 C             0.000000                     0.000000
    7 C             0.000000                     0.000000
    8 H             0.000000                     0.000000
    9 H             0.000000                     0.000000
   10 H             0.000000                     0.000000

               ----- POPULATIONS IN EACH AO -----
                             MULLIKEN      LOWDIN
              1  O  1  S      1.08467     1.03177
              2  O  1  S      0.90257     0.93011
              3  O  1  X      0.27031     0.26525
              4  O  1  Y      0.34087     0.34049
              5  O  1  Z      0.36476     0.36862
              6  O  1  S      1.01916     0.55694
              7  O  1  X      0.59683     0.54234
              8  O  1  Y      0.71132     0.68509
              9  O  1  Z      0.74574     0.72714
             10  O  1  S      0.82001     0.36215
             11  O  1  X      0.32427     0.35844
             12  O  1  Y      0.49702     0.48408
             13  O  1  Z      0.61590     0.53312
             14  O  1  S     -0.10666     0.08865
             15  O  1  X     -0.02484     0.07633
             16  O  1  Y      0.00094     0.09681
             17  O  1  Z      0.03303     0.10401
             18  O  1 XX      0.00617     0.19228
             19  O  1 YY     -0.00799     0.18302
             20  O  1 ZZ     -0.01202     0.18271
             21  O  1 XY      0.00652     0.00868
             22  O  1 XZ      0.00091     0.00136
             23  O  1 YZ      0.00129     0.00099
             24  O  2  S      1.08474     1.03222
             25  O  2  S      0.90248     0.93034
             26  O  2  X      0.37778     0.38053
             27  O  2  Y      0.30058     0.29420
             28  O  2  Z      0.28736     0.28793
             29  O  2  S      1.02772     0.57210
             30  O  2  X      0.76122     0.74510
             31  O  2  Y      0.63553     0.61726
             32  O  2  Z      0.60454     0.58100
             33  O  2  S      0.90691     0.39574
             34  O  2  X      0.59144     0.52136
             35  O  2  Y      0.30964     0.40534
             36  O  2  Z      0.49781     0.45637
             37  O  2  S     -0.00926     0.10824
             38  O  2  X      0.01997     0.10027
             39  O  2  Y     -0.00741     0.08545
             40  O  2  Z      0.01528     0.09381
             41  O  2 XX     -0.01322     0.19124
             42  O  2 YY      0.00739     0.20476
             43  O  2 ZZ     -0.01004     0.19372
             44  O  2 XY      0.00347     0.00446
             45  O  2 XZ      0.00009     0.00011
             46  O  2 YZ      0.00464     0.00496
             47  O  3  S      1.08488     1.03270
             48  O  3  S      0.90238     0.93037
             49  O  3  X      0.35742     0.36108
             50  O  3  Y      0.31635     0.31968
             51  O  3  Z      0.27084     0.26747
             52  O  3  S      1.05776     0.59904
             53  O  3  X      0.72834     0.72099
             54  O  3  Y      0.65226     0.64091
             55  O  3  Z      0.58972     0.57263
             56  O  3  S      0.94605     0.40699
             57  O  3  X      0.51229     0.49377
             58  O  3  Y      0.50222     0.47317
             59  O  3  Z      0.28876     0.38693
             60  O  3  S     -0.18992     0.10705
             61  O  3  X      0.02250     0.09041
             62  O  3  Y      0.02087     0.08384
             63  O  3  Z      0.00406     0.07776
             64  O  3 XX     -0.01055     0.20221
             65  O  3 YY     -0.01007     0.20398
             66  O  3 ZZ      0.00183     0.20888
             67  O  3 XY      0.00080     0.00105
             68  O  3 XZ      0.00540     0.00828
             69  O  3 YZ      0.00399     0.00524
             70  O  4  S      1.08488     1.03270
             71  O  4  S      0.90238     0.93037
             72  O  4  X      0.35696     0.36057
             73  O  4  Y      0.30467     0.30723
             74  O  4  Z      0.28297     0.28034
             75  O  4  S      1.05778     0.59887
             76  O  4  X      0.72759     0.71985
             77  O  4  Y      0.63297     0.62156
             78  O  4  Z      0.60972     0.59318
             79  O  4  S      0.94596     0.40689
             80  O  4  X      0.51115     0.49314
             81  O  4  Y      0.47308     0.45951
             82  O  4  Z      0.31903     0.40177
             83  O  4  S     -0.19039     0.10705
             84  O  4  X      0.02220     0.09039
             85  O  4  Y      0.02075     0.08158
             86  O  4  Z      0.00417     0.08010
             87  O  4 XX     -0.01050     0.20208
             88  O  4 YY     -0.00887     0.20423
             89  O  4 ZZ     -0.00013     0.20722
             90  O  4 XY      0.00114     0.00166
             91  O  4 XZ      0.00510     0.00772
             92  O  4 YZ      0.00466     0.00657
             93  N  5  S      1.09591     1.03821
             94  N  5  S      0.88975     0.91895
             95  N  5  X      0.25831     0.25770
             96  N  5  Y      0.23801     0.23882
             97  N  5  Z      0.24746     0.24712
             98  N  5  S      0.93101     0.49669
             99  N  5  X      0.59110     0.53816
            100  N  5  Y      0.54811     0.50328
            101  N  5  Z      0.57665     0.52614
            102  N  5  S      0.52038     0.22459
            103  N  5  X      0.31510     0.29573
            104  N  5  Y      0.36477     0.32221
            105  N  5  Z      0.13526     0.25859
            106  N  5  S      0.01708     0.07291
            107  N  5  X      0.04982     0.08211
            108  N  5  Y      0.01422     0.05596
            109  N  5  Z      0.15745     0.09379
            110  N  5 XX      0.01336     0.17369
            111  N  5 YY     -0.00850     0.13821
            112  N  5 ZZ      0.04675     0.22037
            113  N  5 XY      0.00851     0.01428
            114  N  5 XZ      0.03482     0.05767
            115  N  5 YZ      0.03032     0.04895
            116  C  6  S      1.10447     1.04524
            117  C  6  S      0.87804     0.90865
            118  C  6  X      0.17680     0.17278
            119  C  6  Y      0.21753     0.21045
            120  C  6  Z      0.24772     0.23830
            121  C  6  S      0.77439     0.39821
            122  C  6  X      0.44307     0.42449
            123  C  6  Y      0.52137     0.48280
            124  C  6  Z      0.57344     0.51883
            125  C  6  S      0.46045     0.19670
            126  C  6  X      0.11719     0.19873
            127  C  6  Y      0.22668     0.26780
            128  C  6  Z      0.36476     0.31842
            129  C  6  S      0.28952     0.04816
            130  C  6  X      0.00050     0.04905
            131  C  6  Y     -0.03103     0.03755
            132  C  6  Z     -0.00378     0.03923
            133  C  6 XX      0.01426     0.15248
            134  C  6 YY      0.00019     0.13694
            135  C  6 ZZ      0.00302     0.14212
            136  C  6 XY      0.01986     0.03691
            137  C  6 XZ      0.00429     0.01001
            138  C  6 YZ      0.01156     0.02250
            139  C  7  S      1.10485     1.04534
            140  C  7  S      0.87815     0.90768
            141  C  7  X      0.20566     0.20087
            142  C  7  Y      0.24469     0.24000
            143  C  7  Z      0.15158     0.14908
            144  C  7  S      0.80222     0.41178
            145  C  7  X      0.48972     0.45854
            146  C  7  Y      0.49870     0.47277
            147  C  7  Z      0.38087     0.34538
            148  C  7  S      0.33690     0.16453
            149  C  7  X      0.14854     0.20366
            150  C  7  Y      0.04125     0.21486
            151  C  7  Z      0.23258     0.22651
            152  C  7  S      0.02650     0.04503
            153  C  7  X      0.05171     0.04916
            154  C  7  Y      0.02436     0.05166
            155  C  7  Z      0.02880     0.02854
            156  C  7 XX      0.02539     0.17192
            157  C  7 YY      0.04086     0.20483
            158  C  7 ZZ     -0.02415     0.08556
            159  C  7 XY      0.08513     0.15373
            160  C  7 XZ      0.01928     0.03527
            161  C  7 YZ      0.03717     0.06523
            162  H  8  S      0.26887     0.26045
            163  H  8  S      0.43826     0.37780
            164  H  8  S     -0.00477     0.11566
            165  H  8  S     -0.01842     0.02723
            166  H  8  X      0.00304     0.00981
            167  H  8  Y      0.00921     0.02349
            168  H  8  Z      0.01132     0.02667
            169  H  9  S      0.26885     0.26095
            170  H  9  S      0.43825     0.37834
            171  H  9  S     -0.00506     0.11575
            172  H  9  S     -0.01821     0.02724
            173  H  9  X      0.00303     0.00981
            174  H  9  Y      0.00703     0.01895
            175  H  9  Z      0.01349     0.03146
            176  H 10  S      0.25365     0.24927
            177  H 10  S      0.32927     0.29598
            178  H 10  S      0.02928     0.07736
            179  H 10  S     -0.01423     0.02036
            180  H 10  X      0.02504     0.05449
            181  H 10  Y      0.02026     0.05039
            182  H 10  Z      0.01622     0.04018

          ----- MULLIKEN ATOMIC OVERLAP POPULATIONS -----
          (OFF-DIAGONAL ELEMENTS NEED TO BE MULTIPLIED BY 2)

             1           2           3           4           5

    1    7.9207599
    2   -0.1255436   8.0290279
    3   -0.0018467  -0.0075767   7.9892500
    4   -0.0018088  -0.0075767  -0.1424296   7.9898490
    5    0.0054644   0.0486886   0.3021352   0.3013597   6.5330485
    6   -0.3544980  -0.1374493  -0.0517195  -0.0507682  -0.1673203
    7    0.4506173   0.5083223  -0.0345041  -0.0359202   0.0934771
    8   -0.0000220   0.0005274   0.0036846   0.0014608  -0.0231664
    9    0.0000392   0.0004814   0.0014487   0.0033671  -0.0225152
   10    0.2976372  -0.0102139  -0.0002738  -0.0002780   0.0044527

             6           7           8           9          10

    6    7.0758679
    7   -0.5534869   5.4022501
    8    0.3391850  -0.0030722   0.4271719
    9    0.3369972  -0.0010818  -0.0392009   0.4268753
   10   -0.0225057   0.0041730   0.0009397   0.0009685   0.3846019

          TOTAL MULLIKEN AND LOWDIN ATOMIC POPULATIONS
       ATOM         MULL.POP.    CHARGE          LOW.POP.     CHARGE
    1 O             8.190799   -0.190799         8.120399   -0.120399
    2 O             8.298687   -0.298687         8.206497   -0.206497
    3 O             8.058168   -0.058168         8.194431   -0.194431
    4 O             8.057255   -0.057255         8.194572   -0.194572
    5 N             7.075624   -0.075624         6.824139    0.175861
    6 C             6.414302   -0.414302         6.056376   -0.056376
    7 C             5.830775    0.169225         5.931930    0.068070
    8 H             0.707508    0.292492         0.841121    0.158879
    9 H             0.707380    0.292620         0.842509    0.157491
   10 H             0.659502    0.340498         0.788026    0.211974

          -------------------------------
          BOND ORDER AND VALENCE ANALYSIS     BOND ORDER THRESHOLD=0.050
          -------------------------------

                   BOND                       BOND                       BOND
  ATOM PAIR DIST  ORDER      ATOM PAIR DIST  ORDER      ATOM PAIR DIST  ORDER
    1   6  2.347 -0.178        1   7  1.373  1.313        1  10  0.982  0.868
    2   5  2.803  0.088        2   6  2.455 -0.201        2   7  1.226  2.128
    3   4  2.241  0.208        3   5  1.257  1.823        3   6  2.356  0.095
    4   5  1.257  1.822        4   6  2.356  0.095        5   6  1.502  0.657
    6   7  1.515  0.800        6   8  1.091  0.936        6   9  1.091  0.935

                       TOTAL       BONDED        FREE
      ATOM            VALENCE     VALENCE     VALENCE
    1 O                 1.952       1.952       0.000
    2 O                 1.974       1.974       0.000
    3 O                 2.086       2.086       0.000
    4 O                 2.084       2.084       0.000
    5 N                 4.306       4.306      -0.000
    6 C                 3.129       3.129       0.000
    7 C                 4.129       4.129      -0.000
    8 H                 0.881       0.881      -0.000
    9 H                 0.881       0.881      -0.000
   10 H                 0.894       0.894      -0.000

          -----------------------------------------
          ATOMIC SPIN DENSITY AT THE NUCLEUS (A.U.)
          -----------------------------------------
                            SPIN DENS    ALPHA DENS     BETA DENS
    1  O            8.0     0.0000000     147.64288     147.64288
    2  O            8.0     0.0000000     147.78281     147.78281
    3  O            8.0     0.0000000     147.96548     147.96548
    4  O            8.0     0.0000000     147.96564     147.96564
    5  N            7.0     0.0000000      97.15545      97.15545
    6  C            6.0     0.0000000      59.78118      59.78118
    7  C            6.0     0.0000000      59.84671      59.84671
    8  H            1.0     0.0000000       0.21232       0.21232
    9  H            1.0     0.0000000       0.21230       0.21230
   10  H            1.0     0.0000000       0.19478       0.19478

    **** A SOLVENT MODEL IS IN USE IN THIS RUN ****
 ELECTRICAL PROPERTIES (MOMENTS, DENSITY, FIELD/GRADIENT, AND/OR POTENTIAL)
 ARE COMPUTED USING THE SOLVATED SYSTEM'S DENSITY MATRIX, BUT
 ONLY WITH AO INTEGRAL CONTRIBUTIONS FROM THE QUANTUM SOLUTE.
 THE ONE EXCEPTION IS THE DIPOLE, WHICH IS ALSO PRINTED FOR THE TOTAL SYSTEM.

          ----------------------------
          SOLUTE ELECTROSTATIC MOMENTS
          ----------------------------

 POINT   1           X           Y           Z (BOHR)    CHARGE
                 0.008081   -0.011692    0.000826        0.00 (A.U.)
         DX          DY          DZ         /D/  (DEBYE)
    -4.818464    3.976598    0.398228    6.260152

          ----------------------------
          SYSTEM ELECTROSTATIC MOMENTS
          ----------------------------

 POINT   1           X           Y           Z (BOHR)    CHARGE
                 0.008081   -0.011692    0.000826        0.00 (A.U.)
         DX          DY          DZ         /D/  (DEBYE)
    -4.818464    3.976598    0.398228    6.260152
 INCLUDING PCM SURFACE CHARGES, TOTAL CHARGE=   -0.008283, AND TOTAL DIPOLE IS
         DX          DY          DZ         /D/  (DEBYE)
    -0.176318    0.209702    0.035584    0.276277
 ...... END OF PROPERTY EVALUATION ......
 STEP CPU TIME =     0.07 TOTAL CPU TIME =        207.7 (      3.5 MIN)
 TOTAL WALL CLOCK TIME=        210.2 SECONDS, CPU UTILIZATION IS    98.83%

             ----------------------------------------------
             -------   RESULTS OF PCM CALCULATION   -------
             ----------------------------------------------

 FREE ENERGY IN SOLVENT = <PSI| H(0)+V/2 |PSI>       =     -433.5281482943 A.U.
 INTERNAL ENERGY IN SOLVENT = <PSI| H(0) |PSI>       =     -433.5079487026 A.U.
 DELTA INTERNAL ENERGY =  <D-PSI| H(0) |D-PSI>       =        0.0000000000 A.U.
 ELECTROSTATIC INTERACTION                           =       -0.0201995917 A.U.
 PIEROTTI CAVITATION ENERGY                          =        0.0000000000 A.U.
 DISPERSION FREE ENERGY                              =        0.0000000000 A.U.
 REPULSION FREE ENERGY                               =        0.0000000000 A.U.
 TOTAL INTERACTION (DELTA + ES + CAV + DISP + REP)   =       -0.0201995917 A.U.
 TOTAL FREE ENERGY IN SOLVENT                        =     -433.5281482943 A.U.

 FREE ENERGY IN SOLVENT       =     -272043.05 KCAL/MOL
 INTERNAL ENERGY IN SOLVENT   =     -272030.37 KCAL/MOL
 DELTA INTERNAL ENERGY        =           0.00 KCAL/MOL
 ELECTROSTATIC INTERACTION    =         -12.68 KCAL/MOL
 PIEROTTI CAVITATION ENERGY   =           0.00 KCAL/MOL
 DISPERSION FREE ENERGY       =           0.00 KCAL/MOL
 REPULSION FREE ENERGY        =           0.00 KCAL/MOL
 TOTAL INTERACTION            =         -12.68 KCAL/MOL
 TOTAL FREE ENERGY IN SOLVENT =     -272043.05 KCAL/MOL

           -----  ENERGY CHANGE FROM GAS PHASE TO SOLVENT  -----
              ELEC          ELEC+CAV    ELEC+CAV+DIS+REP
           -10.811           -10.811             -10.811 KCAL/MOL

 -INTERNAL ENERGY IN SOLVENT-
    OMITS ES,CAV,DISP,REP (USES SOLVATED ORBITALS IN THE GAS PHASE HAMILTONIAN)
 -FREE ENERGY IN SOLVENT-
    INCLUDES ES+DISP+REP WHICH ARE IN THE SELF-CONSISTENT WAVEFUNCTION.
 -TOTAL FREE ENERGY IN SOLVENT-
    INCLUDES ES+DISP+REP+CAV, MEANING CAVITATION IS NOT IN THE SCF ENERGY.

 .... DONE PRINTING PCM SOLVENT SUMMARY ....
 STEP CPU TIME =     0.00 TOTAL CPU TIME =        207.7 (      3.5 MIN)
 TOTAL WALL CLOCK TIME=        210.2 SECONDS, CPU UTILIZATION IS    98.83%
               857715  WORDS OF DYNAMIC MEMORY USED
 EXECUTION OF GAMESS TERMINATED NORMALLY Tue Mar 17 11:39:58 2020
 DDI: 263640 bytes (0.3 MB / 0 MWords) used by master data server.

 ----------------------------------------
 CPU timing information for all processes
 ========================================
 0: 201.215 + 6.486 = 207.702
 1: 0.01 + 0.01 = 0.02
 ----------------------------------------
 ddikick.x: exited gracefully.
unset echo
----- accounting info -----
Files used on the master node vusals-mbp were:
-rw-r--r--@ 1 wurthel  staff         712 Mar 17 11:36 .//6-311++G2dp_neutral.F05
-rw-r--r--  1 wurthel  staff  1181985056 Mar 17 11:36 .//6-311++G2dp_neutral.F08
-rw-r--r--  1 wurthel  staff     5104320 Mar 17 11:40 .//6-311++G2dp_neutral.F10
-rw-r--r--  1 wurthel  staff           8 Mar 17 11:40 .//6-311++G2dp_neutral.F26
-rw-r--r--  1 wurthel  staff           0 Mar 17 11:36 .//6-311++G2dp_neutral.F27
-rw-r--r--  1 wurthel  staff     1078722 Mar 17 11:39 .//6-311++G2dp_neutral.dat
-rw-r--r--@ 1 wurthel  staff         712 Mar 17 11:33 .//6-311++G2dp_neutral.inp
-rw-r--r--  1 wurthel  staff     1044328 Mar 17 11:40 .//6-311++G2dp_neutral.log
ls: No match.
ls: No match.
ls: No match.
Tue Mar 17 11:40:01 MSK 2020
201.277u 6.589s 3:33.35 97.4%	0+0k 0+1io 160pf+0w
