----- GAMESS execution script 'rungms' -----
This job is running on host vusals-mbp
under operating system Darwin at Tue Mar 17 11:38:16 MSK 2020
Available scratch disk space (Kbyte units) at beginning of the job is
Filesystem   1024-blocks     Used Available Capacity iused               ifree %iused  Mounted on
/dev/disk1s5   118181844 46341820  67429024    41% 1005664 9223372036853770143    0%   /
GAMESS temporary binary files will be written to ./
GAMESS supplementary output files will be written to ./
Copying input file 6-311++G2dp_anion.inp to your run's scratch directory...
cp 6-311++G2dp_anion.inp .//6-311++G2dp_anion.F05
unset echo
.//ddikick.x .//gamess.30Sep2018R3.x 6-311++G2dp_anion -ddi 1 1 vusals-mbp -scr ./

 Distributed Data Interface kickoff program.
 Initiating 1 compute processes on 1 nodes to run the following command:
 .//gamess.30Sep2018R3.x 6-311++G2dp_anion 

          ******************************************************
          *         GAMESS VERSION = 30 SEP 2018 (R3)         *
          *             FROM IOWA STATE UNIVERSITY             *
          * M.W.SCHMIDT, K.K.BALDRIDGE, J.A.BOATZ, S.T.ELBERT, *
          *   M.S.GORDON, J.H.JENSEN, S.KOSEKI, N.MATSUNAGA,   *
          *          K.A.NGUYEN, S.J.SU, T.L.WINDUS,           *
          *       TOGETHER WITH M.DUPUIS, J.A.MONTGOMERY       *
          *         J.COMPUT.CHEM.  14, 1347-1363(1993)        *
          **************** 64 BIT APPLE VERSION ****************

  SINCE 1993, STUDENTS AND POSTDOCS WORKING AT IOWA STATE UNIVERSITY
  AND ALSO IN THEIR VARIOUS JOBS AFTER LEAVING ISU HAVE MADE IMPORTANT
  CONTRIBUTIONS TO THE CODE:
     IVANA ADAMOVIC, CHRISTINE AIKENS, YURI ALEXEEV, POOJA ARORA,
     ANDREY ASADCHEV, ROB BELL, PRADIPTA BANDYOPADHYAY, JONATHAN BENTZ,
     BRETT BODE, KURT BRORSEN, CALEB CARLIN, GALINA CHABAN, WEI CHEN,
     CHEOL HO CHOI, PAUL DAY, ALBERT DEFUSCO, NUWAN DESILVA, TIM DUDLEY,
     DMITRI FEDOROV, ALEX FINDLATER, GRAHAM FLETCHER, MARK FREITAG,
     KURT GLAESEMANN, ANASTASIA GUNINA,
     DAN KEMP, GRANT MERRILL, NORIYUKI MINEZAWA, JONATHAN MULLIN,
     TAKESHI NAGATA, SEAN NEDD, HEATHER NETZLOFF, BOSILJKA NJEGIC, RYAN OLSON,
     MIKE PAK, BUU PHAM,
     SPENCER PRUITT, LUKE ROSKOP, JIM SHOEMAKER, LYUDMILA SLIPCHENKO,
     TONY SMITH, SAROM SOK LEANG, JIE SONG, TETSUYA TAKETSUGU, SIMON WEBB,
     PENG XU, SOOHAENG YOO, FEDERICO ZAHARIEV

  ADDITIONAL CODE HAS BEEN PROVIDED BY COLLABORATORS IN OTHER GROUPS:
     IOWA STATE UNIVERSITY:
          JOE IVANIC, AARON WEST, LAIMUTIS BYTAUTAS, KLAUS RUEDENBERG
     UNIVERSITY OF TOKYO: KIMIHIKO HIRAO, TAKAHITO NAKAJIMA,
          TAKAO TSUNEDA, MUNEAKI KAMIYA, SUSUMU YANAGISAWA,
          KIYOSHI YAGI, MAHITO CHIBA, SEIKEN TOKURA, NAOAKI KAWAKAMI
     UNIVERSITY OF AARHUS: FRANK JENSEN
     UNIVERSITY OF IOWA: VISVALDAS KAIRYS, HUI LI
     NATIONAL INST. OF STANDARDS AND TECHNOLOGY: WALT STEVENS, DAVID GARMER
     UNIVERSITY OF PISA: BENEDETTA MENNUCCI, JACOPO TOMASI
     UNIVERSITY OF MEMPHIS: HENRY KURTZ, PRAKASHAN KORAMBATH
     UNIVERSITY OF ALBERTA: TOBY ZENG, MARIUSZ KLOBUKOWSKI
     UNIVERSITY OF NEW ENGLAND: MARK SPACKMAN
     MIE UNIVERSITY: HIROAKI UMEDA
     NAT. INST. OF ADVANCED INDUSTRIAL SCIENCE AND TECHNOLOGY: KAZUO KITAURA
     MICHIGAN STATE UNIVERSITY:
          KAROL KOWALSKI, MARTA WLOCH, JEFFREY GOUR, JESSE LUTZ,
          WEI LI, JUN SHEN, J. EMILIANO DEUSTUA, PIOTR PIECUCH
     UNIVERSITY OF MINNESOTA:
          YINAN SHU
     UNIVERSITY OF SILESIA: MONIKA MUSIAL, STANISLAW KUCHARSKI
     FACULTES UNIVERSITAIRES NOTRE-DAME DE LA PAIX:
          OLIVIER QUINET, BENOIT CHAMPAGNE
     UNIVERSITY OF CALIFORNIA - SANTA BARBARA: BERNARD KIRTMAN
     INSTITUTE FOR MOLECULAR SCIENCE:
          KAZUYA ISHIMURA, MICHIO KATOUDA, AND SHIGERU NAGASE
     UNIVERSITY OF NOTRE DAME: ANNA POMOGAEVA, DAN CHIPMAN
     KYUSHU UNIVERSITY:
          HARUYUKI NAKANO,
          FENG LONG GU, JACEK KORCHOWIEC, MARCIN MAKOWSKI, AND YURIKO AOKI,
          HIROTOSHI MORI AND EISAKU MIYOSHI
     PENNSYLVANIA STATE UNIVERSITY:
          TZVETELIN IORDANOV, CHET SWALINA, JONATHAN SKONE,
          SHARON HAMMES-SCHIFFER
     WASEDA UNIVERSITY:
          MASATO KOBAYASHI, TOMOKO AKAMA, TSUGUKI TOUMA,
          TAKESHI YOSHIKAWA, YASUHIRO IKABATA, JUNJI SEINO,
          YUYA NAKAJIMA, HIROMI NAKAI
     NANJING UNIVERSITY: SHUHUA LI
     UNIVERSITY OF NEBRASKA:
          PEIFENG SU, DEJUN SI, NANDUN THELLAMUREGE, YALI WANG, HUI LI
     UNIVERSITY OF ZURICH: ROBERTO PEVERATI, KIM BALDRIDGE
     N. COPERNICUS UNIVERSITY AND JACKSON STATE UNIVERSITY:
          MARIA BARYSZ
     UNIVERSITY OF COPENHAGEN: Jimmy Kromann, CASPER STEINMANN
     TOKYO INSTITUTE OF TECHNOLOGY: HIROYA NAKATA
     NAGOYA UNIVERSITY: YOSHIO NISHIMOTO, STEPHAN IRLE
     MOSCOW STATE UNIVERSITY: VLADIMIR MIRONOV

 EXECUTION OF GAMESS BEGUN Tue Mar 17 11:38:16 2020

            ECHO OF THE FIRST FEW INPUT CARDS -
 INPUT CARD>!   File created by the GAMESS Input Deck Generator Plugin for Avogadro         
 INPUT CARD> $BASIS GBASIS=N311 NGAUSS=6 NDFUNC=1 NPFUNC=1 DIFFSP=.TRUE. DIFFS=.TRUE. $END  
 INPUT CARD> $PCM SOLVNT=WATER $END                                                         
 INPUT CARD> $CONTRL SCFTYP=ROHF RUNTYP=ENERGY DFTTYP=B3LYP ICHARG=-1 $END                  
 INPUT CARD>                                                                                
 INPUT CARD> $DATA                                                                          
 INPUT CARD>Title                                                                           
 INPUT CARD>C1                                                                              
 INPUT CARD>O     8.0    -2.39750     0.58390     0.08210                                   
 INPUT CARD>O     8.0    -1.10440    -1.33310    -0.13010                                   
 INPUT CARD>O     8.0     1.77170     0.02840    -1.12340                                   
 INPUT CARD>O     8.0     1.77790    -0.19340     1.10250                                   
 INPUT CARD>N     7.0     1.25620     0.22740     0.02200                                   
 INPUT CARD>C     6.0    -0.04460     0.89650     0.09280                                   
 INPUT CARD>C     6.0    -1.33120    -0.10180     0.00120                                   
 INPUT CARD>H     1.0    -0.10770     1.58420    -0.74880                                   
 INPUT CARD>H     1.0    -0.10030     1.40950     1.05140                                   
 INPUT CARD> $END                                                                           
    1000000 WORDS OF MEMORY AVAILABLE

     BASIS OPTIONS
     -------------
     GBASIS=N311         IGAUSS=       6      POLAR=POPN311 
     NDFUNC=       1     NFFUNC=       0     DIFFSP=       T
     NPFUNC=       1      DIFFS=       T     BASNAM=        


     RUN TITLE
     ---------
 Title                                                                           

 THE POINT GROUP OF THE MOLECULE IS C1      
 THE ORDER OF THE PRINCIPAL AXIS IS     0

 ATOM      ATOMIC                      COORDINATES (BOHR)
           CHARGE         X                   Y                   Z
 O           8.0    -4.5306180556        1.1034110042        0.1551465036
 O           8.0    -2.0870133808       -2.5191937142       -0.2458533510
 O           8.0     3.3480275324        0.0536682181       -2.1229181746
 O           8.0     3.3597438336       -0.3654730060        2.0834229015
 N           7.0     2.3738737858        0.4297236896        0.0415739717
 C           6.0    -0.0842817791        1.6941393480        0.1753665717
 C           6.0    -2.5156032349       -0.1923741056        0.0022676712
 H           1.0    -0.2035234889        2.9937039097       -1.4150268196
 H           1.0    -0.1895395166        2.6635687797        1.9868579035

          INTERNUCLEAR DISTANCES (ANGS.)
          ------------------------------

                1 O          2 O          3 O          4 O          5 N     

   1 O       0.0000000    2.3220735 *  4.3753902    4.3679946    3.6715430  
   2 O       2.3220735 *  0.0000000    3.3335084    3.3355468    2.8338537 *
   3 O       4.3753902    3.3335084    0.0000000    2.2369319 *  1.2717242 *
   4 O       4.3679946    3.3355468    2.2369319 *  0.0000000    1.2715045 *
   5 N       3.6715430    2.8338537 *  1.2717242 *  1.2715045 *  0.0000000  
   6 C       2.3735989 *  2.4787046 *  2.3519536 *  2.3513576 *  1.4645095 *
   7 C       1.2703248 *  1.2588795 *  3.3029783    3.2996598    2.6083412 *
   8 H       2.6332829 *  3.1443346    2.4683969 *  3.1847544    2.0725014 *
   9 H       2.6264588 *  3.1505577    3.1845842    2.4697236 *  2.0729489 *

                6 C          7 C          8 H          9 H     

   1 O       2.3735989 *  1.2703248 *  2.6332829 *  2.6264588 *
   2 O       2.4787046 *  1.2588795 *  3.1443346    3.1505577  
   3 O       2.3519536 *  3.3029783    2.4683969 *  3.1845842  
   4 O       2.3513576 *  3.2996598    3.1847544    2.4697236 *
   5 N       1.4645095 *  2.6083412 *  2.0725014 *  2.0729489 *
   6 C       0.0000000    1.6310527 *  1.0886705 *  1.0886622 *
   7 C       1.6310527 *  0.0000000    2.2140570 *  2.2140602 *
   8 H       1.0886705 *  2.2140570 *  0.0000000    1.8086721 *
   9 H       1.0886622 *  2.2140602 *  1.8086721 *  0.0000000  

  * ... LESS THAN  3.000


     ATOMIC BASIS SET
     ----------------
 THE CONTRACTED PRIMITIVE FUNCTIONS HAVE BEEN UNNORMALIZED
 THE CONTRACTED BASIS FUNCTIONS ARE NOW NORMALIZED TO UNITY

  SHELL TYPE  PRIMITIVE        EXPONENT          CONTRACTION COEFFICIENT(S)

 O         

      1   S       1          8588.5000000    0.001895150083
      1   S       2          1297.2300000    0.014385900631
      1   S       3           299.2960000    0.070732003103
      1   S       4            87.3771000    0.240001010530
      1   S       5            25.6789000    0.594797026097
      1   S       6             3.7400400    0.280802012320

      2   L       7            42.1175000    0.113889012440    0.036511397380
      2   L       8             9.6283700    0.920811100576    0.237152982984
      2   L       9             2.8533200   -0.003274470358    0.819701941186

      3   L      10             0.9056610    1.000000000000    1.000000000000

      4   L      11             0.2556110    1.000000000000    1.000000000000

      5   L      12             0.0845000    1.000000000000    1.000000000000

      6   D      13             1.2920000    1.000000000000

 O         

      7   S      14          8588.5000000    0.001895150083
      7   S      15          1297.2300000    0.014385900631
      7   S      16           299.2960000    0.070732003103
      7   S      17            87.3771000    0.240001010530
      7   S      18            25.6789000    0.594797026097
      7   S      19             3.7400400    0.280802012320

      8   L      20            42.1175000    0.113889012440    0.036511397380
      8   L      21             9.6283700    0.920811100576    0.237152982984
      8   L      22             2.8533200   -0.003274470358    0.819701941186

      9   L      23             0.9056610    1.000000000000    1.000000000000

     10   L      24             0.2556110    1.000000000000    1.000000000000

     11   L      25             0.0845000    1.000000000000    1.000000000000

     12   D      26             1.2920000    1.000000000000

 O         

     13   S      27          8588.5000000    0.001895150083
     13   S      28          1297.2300000    0.014385900631
     13   S      29           299.2960000    0.070732003103
     13   S      30            87.3771000    0.240001010530
     13   S      31            25.6789000    0.594797026097
     13   S      32             3.7400400    0.280802012320

     14   L      33            42.1175000    0.113889012440    0.036511397380
     14   L      34             9.6283700    0.920811100576    0.237152982984
     14   L      35             2.8533200   -0.003274470358    0.819701941186

     15   L      36             0.9056610    1.000000000000    1.000000000000

     16   L      37             0.2556110    1.000000000000    1.000000000000

     17   L      38             0.0845000    1.000000000000    1.000000000000

     18   D      39             1.2920000    1.000000000000

 O         

     19   S      40          8588.5000000    0.001895150083
     19   S      41          1297.2300000    0.014385900631
     19   S      42           299.2960000    0.070732003103
     19   S      43            87.3771000    0.240001010530
     19   S      44            25.6789000    0.594797026097
     19   S      45             3.7400400    0.280802012320

     20   L      46            42.1175000    0.113889012440    0.036511397380
     20   L      47             9.6283700    0.920811100576    0.237152982984
     20   L      48             2.8533200   -0.003274470358    0.819701941186

     21   L      49             0.9056610    1.000000000000    1.000000000000

     22   L      50             0.2556110    1.000000000000    1.000000000000

     23   L      51             0.0845000    1.000000000000    1.000000000000

     24   D      52             1.2920000    1.000000000000

 N         

     25   S      53          6293.4800000    0.001969788147
     25   S      54           949.0440000    0.014961285923
     25   S      55           218.7760000    0.073500530843
     25   S      56            63.6916000    0.248936765774
     25   S      57            18.8282000    0.602459433142
     25   S      58             2.7202300    0.256201758938

     26   L      59            30.6331000    0.111906079519    0.038311918640
     26   L      60             7.0261400    0.921666654920    0.237403115502
     26   L      61             2.1120500   -0.002569191826    0.817592397779

     27   L      62             0.6840090    1.000000000000    1.000000000000

     28   L      63             0.2008780    1.000000000000    1.000000000000

     29   L      64             0.0639000    1.000000000000    1.000000000000

     30   D      65             0.9130000    1.000000000000

 C         

     31   S      66          4563.2400000    0.001966650249
     31   S      67           682.0240000    0.015230601932
     31   S      68           154.9730000    0.076126909656
     31   S      69            44.4553000    0.260801033080
     31   S      70            13.0290000    0.616462078191
     31   S      71             1.8277300    0.221006028032

     32   L      72            20.9642000    0.114660080729    0.040248692673
     32   L      73             4.8033100    0.919999647749    0.237593956746
     32   L      74             1.4593300   -0.003030682134    0.815853851473

     33   L      75             0.4834560    1.000000000000    1.000000000000

     34   L      76             0.1455850    1.000000000000    1.000000000000

     35   L      77             0.0438000    1.000000000000    1.000000000000

     36   D      78             0.6260000    1.000000000000

 C         

     37   S      79          4563.2400000    0.001966650249
     37   S      80           682.0240000    0.015230601932
     37   S      81           154.9730000    0.076126909656
     37   S      82            44.4553000    0.260801033080
     37   S      83            13.0290000    0.616462078191
     37   S      84             1.8277300    0.221006028032

     38   L      85            20.9642000    0.114660080729    0.040248692673
     38   L      86             4.8033100    0.919999647749    0.237593956746
     38   L      87             1.4593300   -0.003030682134    0.815853851473

     39   L      88             0.4834560    1.000000000000    1.000000000000

     40   L      89             0.1455850    1.000000000000    1.000000000000

     41   L      90             0.0438000    1.000000000000    1.000000000000

     42   D      91             0.6260000    1.000000000000

 H         

     43   S      92            33.8650000    0.025493814541
     43   S      93             5.0947900    0.190373108582
     43   S      94             1.1587900    0.852161486043

     44   S      95             0.3258400    1.000000000000

     45   S      96             0.1027410    1.000000000000

     46   S      97             0.0360000    1.000000000000

     47   P      98             0.7500000    1.000000000000

 H         

     48   S      99            33.8650000    0.025493814541
     48   S     100             5.0947900    0.190373108582
     48   S     101             1.1587900    0.852161486043

     49   S     102             0.3258400    1.000000000000

     50   S     103             0.1027410    1.000000000000

     51   S     104             0.0360000    1.000000000000

     52   P     105             0.7500000    1.000000000000

 TOTAL NUMBER OF BASIS SET SHELLS             =   52
 NUMBER OF CARTESIAN GAUSSIAN BASIS FUNCTIONS =  175
 NUMBER OF ELECTRONS                          =   54
 CHARGE OF MOLECULE                           =   -1
 SPIN MULTIPLICITY                            =    1
 NUMBER OF OCCUPIED ORBITALS (ALPHA)          =   27
 NUMBER OF OCCUPIED ORBITALS (BETA )          =   27
 TOTAL NUMBER OF ATOMS                        =    9
 THE NUCLEAR REPULSION ENERGY IS      288.7222743462

     LEBEDEV GRID-BASED DFT OPTIONS
     ------------------------------
     DFTTYP=B3LYP   
     NRAD  =      96     NLEB  =     302
     NRAD0 =      24     NLEB0 =     110
     SWOFF =    5.00E-03 (PURE SCF -> DFT)
     SWITCH=    3.00E-04 (COARSE -> TIGHT GRID)
     THRESH=    0.00E+00 GTHRE=    1.00E+00

 GRIMME'S EMPIRICAL DISPERSION CORRECTION= F

     $CONTRL OPTIONS
     ---------------
 SCFTYP=ROHF         RUNTYP=ENERGY       EXETYP=RUN     
 MPLEVL=       0     CITYP =NONE         CCTYP =NONE         VBTYP =NONE    
 DFTTYP=B3LYP        TDDFT =NONE    
 MULT  =       1     ICHARG=      -1     NZVAR =       0     COORD =UNIQUE  
 PP    =NONE         RELWFN=NONE         LOCAL =NONE         NUMGRD=       F
 ISPHER=      -1     NOSYM =       0     MAXIT =      30     UNITS =ANGS    
 PLTORB=       F     MOLPLT=       F     AIMPAC=       F     FRIEND=        
 NPRINT=       7     IREST =       0     GEOM  =INPUT   
 NORMF =       0     NORMP =       0     ITOL  =      20     ICUT  =       9
 INTTYP=BEST         GRDTYP=BEST         QMTTOL= 1.0E-06

     $SYSTEM OPTIONS
     ---------------
  REPLICATED MEMORY=     1000000 WORDS (ON EVERY NODE).
 DISTRIBUTED MEMDDI=           0 MILLION WORDS IN AGGREGATE,
 MEMDDI DISTRIBUTED OVER   1 PROCESSORS IS           0 WORDS/PROCESSOR.
 TOTAL MEMORY REQUESTED ON EACH PROCESSOR=     1000000 WORDS.
 TIMLIM=      525600.00 MINUTES, OR     365.0 DAYS.
 PARALL= F  BALTYP=  DLB     KDIAG=    0  COREFL= F
 MXSEQ2=     300 MXSEQ3=     150  mem10=         0

 ** LOOKING UP INTERNALLY STORED DATA FOR SOLVENT=WATER    **
 OPTICAL AND PHYSICAL CONSTANTS:
 EPS= 78.390; EPSINF=  1.776; RSOLV=  1.385 A; VMOL=  18.070 ML/MOL;
 TCE= .25700E-03 1/K; STEN= 71.810 DYN/CM;  DSTEN=  0.6500; CMF=  1.2770


     -----------------------------------
     INPUT FOR PCM SOLVATION CALCULATION 
     -----------------------------------
     IEF   =     -10
     ICOMP =       0     IFIELD=       0     ICAV  =       0
     IDISP =       0     IREP  =       0     IDP   =       0

     SOLVNT=WATER        EPS   = 78.3900     EPSINF=  1.7760
     VMOL  = 18.0700     TCE   =  0.00025700 STEN  = 71.8100
     DSTEN =  0.6500     CMF   =  1.2770     RSOLV =  1.3850

     NESFP =       0
     OMEGA = 40.0000     RET   =100.0000     FRO   =  0.7000

     TABS  =298.0000     IPRINT=       0

     --------------------------------
     INPUT FOR ITERATIVE C-PCM METHOD 
     --------------------------------
     IPCMIT  =         1     MXDIIS  =        50
     MXITR1  =        50     MXITR2  =        50
     THRES   = 0.100E-09     IMUL    =         3
     RCUT(1) =   15.0000     RCUT(2) =   30.0000

     IDIRCT  =         1
     IMGABI  =         0     RABI    =    4.0000
     IMGASC  =         0     RASC    =   20.0000
     THRSLS  = 0.500E-03     DENSLS  =    0.0100
     IEFPOL  =         1     REFPOL  =    0.0000

     INPUT FOR ISOTROPIC DIELECTRICS
     -------------------------------
     EPS=    78.39

     INPUT FOR CAVITY DEFINITION 
     ---------------------------
   ATOM               COORDINATES                RADIUS       EPS
      1     -2.3975      0.5839      0.0821      1.5000     78.3900
      2     -1.1044     -1.3331     -0.1301      1.5000     78.3900
      3      1.7717      0.0284     -1.1234      1.5000     78.3900
      4      1.7779     -0.1934      1.1025      1.5000     78.3900
      5      1.2562      0.2274      0.0220      1.6000     78.3900
      6     -0.0446      0.8965      0.0928      1.7000     78.3900
      7     -1.3312     -0.1018      0.0012      1.7000     78.3900
      8     -0.1077      1.5842     -0.7488      1.2000     78.3900
      9     -0.1003      1.4095      1.0514      1.2000     78.3900

     ----------------------------
     INPUT FOR TESSERA DEFINITION
     ----------------------------
     NTSALL  =        60     MTHALL  =         4
     MTHAUT  =         0     AUTFRE  =    2.0000
     NTSFRZ  =        60     KEEPSM  =         0
     AREAKP  =   10.0000     BONDRY  =    1.0000
     AREATL  =    0.0100

     SPHERE     INITS       METHOD
          1        60       FIXPVA
          2        60       FIXPVA
          3        60       FIXPVA
          4        60       FIXPVA
          5        60       FIXPVA
          6        60       FIXPVA
          7        60       FIXPVA
          8        60       FIXPVA
          9        60       FIXPVA

     ------------------------------
      FIXPVA TESSELLATION FOR PCM
         PEIFENG SU AND HUI LI
     UNIVERSITY OF NEBRASKA-LINCOLN
     ------------------------------


 PCM DIMENSIONS: MXSP=  2000, MXTS=       540, MEMORY=         33883

          ----------------
          PROPERTIES INPUT
          ----------------

     MOMENTS            FIELD           POTENTIAL          DENSITY
 IEMOM =       1   IEFLD =       0   IEPOT =       0   IEDEN =       0
 WHERE =COMASS     WHERE =NUCLEI     WHERE =NUCLEI     WHERE =NUCLEI  
 OUTPUT=BOTH       OUTPUT=BOTH       OUTPUT=BOTH       OUTPUT=BOTH    
 IEMINT=       0   IEFINT=       0                     IEDINT=       0
                                                       MORB  =       0
          EXTRAPOLATION IN EFFECT
          DIIS IN EFFECT
 ORBITAL PRINTING OPTION: NPREO=     1   175     2     1

     -------------------------------
     INTEGRAL TRANSFORMATION OPTIONS
     -------------------------------
     NWORD  =            0
     CUTOFF = 1.0E-09     MPTRAN =       0
     DIRTRF =       F     AOINTS =DUP     

          ----------------------
          INTEGRAL INPUT OPTIONS
          ----------------------
 NOPK  =       1 NORDER=       0 SCHWRZ=       T

     ------------------------------------------
     THE POINT GROUP IS C1 , NAXIS= 1, ORDER= 1
     ------------------------------------------

     DIMENSIONS OF THE SYMMETRY SUBSPACES ARE
 A   =  175

 ..... DONE SETTING UP THE RUN .....
 STEP CPU TIME =     0.00 TOTAL CPU TIME =          0.0 (      0.0 MIN)
 TOTAL WALL CLOCK TIME=          0.0 SECONDS, CPU UTILIZATION IS     0.00%

          ********************
          1 ELECTRON INTEGRALS
          ********************
 ...... END OF ONE-ELECTRON INTEGRALS ......
 STEP CPU TIME =     0.00 TOTAL CPU TIME =          0.0 (      0.0 MIN)
 TOTAL WALL CLOCK TIME=          0.0 SECONDS, CPU UTILIZATION IS     0.00%

          -------------
          GUESS OPTIONS
          -------------
          GUESS =HUCKEL            NORB  =       0          NORDER=       0
          MIX   =       F          PRTMO =       F          PUNMO =       F
          TOLZ  = 1.0E-08          TOLE  = 1.0E-05
          SYMDEN=       F          PURIFY=       F

 INITIAL GUESS ORBITALS GENERATED BY HUCKEL   ROUTINE.
 HUCKEL GUESS REQUIRES    233548 WORDS.

 SYMMETRIES FOR INITIAL GUESS ORBITALS FOLLOW.  ALPHA SET(S).
    27 ORBITALS ARE OCCUPIED (    7 CORE ORBITALS).
     8=A        9=A       10=A       11=A       12=A       13=A       14=A   
    15=A       16=A       17=A       18=A       19=A       20=A       21=A   
    22=A       23=A       24=A       25=A       26=A       27=A       28=A   
    29=A       30=A       31=A       32=A       33=A       34=A       35=A   
    36=A       37=A   

 SYMMETRIES FOR INITIAL GUESS ORBITALS FOLLOW.   BETA SET(S).
    27 ORBITALS ARE OCCUPIED (    7 CORE ORBITALS).
     8=A        9=A       10=A       11=A       12=A       13=A       14=A   
    15=A       16=A       17=A       18=A       19=A       20=A       21=A   
    22=A       23=A       24=A       25=A       26=A       27=A       28=A   
    29=A       30=A       31=A       32=A       33=A       34=A       35=A   
    36=A       37=A   
 ...... END OF INITIAL ORBITAL SELECTION ......
 STEP CPU TIME =     0.06 TOTAL CPU TIME =          0.1 (      0.0 MIN)
 TOTAL WALL CLOCK TIME=          0.1 SECONDS, CPU UTILIZATION IS    85.71%

                    ----------------------
                    AO INTEGRAL TECHNOLOGY
                    ----------------------
     S,P,L SHELL ROTATED AXIS INTEGRALS, REPROGRAMMED BY
        KAZUYA ISHIMURA (IMS) AND JOSE SIERRA (SYNSTAR).
     S,P,D,L SHELL ROTATED AXIS INTEGRALS PROGRAMMED BY
        KAZUYA ISHIMURA (INSTITUTE FOR MOLECULAR SCIENCE).
     S,P,D,F,G SHELL TO TOTAL QUARTET ANGULAR MOMENTUM SUM 5,
        ERIC PROGRAM BY GRAHAM FLETCHER (ELORET AND NASA ADVANCED
        SUPERCOMPUTING DIVISION, AMES RESEARCH CENTER).
     S,P,D,F,G,L SHELL GENERAL RYS QUADRATURE PROGRAMMED BY
        MICHEL DUPUIS (PACIFIC NORTHWEST NATIONAL LABORATORY).

          --------------------
          2 ELECTRON INTEGRALS
          --------------------

 THE -PK- OPTION IS OFF, THE INTEGRALS ARE NOT IN SUPERMATRIX FORM.
 STORING   15000 INTEGRALS/RECORD ON DISK, USING 12 BYTES/INTEGRAL.
 TWO ELECTRON INTEGRAL EVALUATION REQUIRES   91774 WORDS OF MEMORY.
 SCHWARZ INEQUALITY OVERHEAD:     14921 INTEGRALS, T=        0.01
 II,JST,KST,LST =  1  1  1  1 NREC =         1 INTLOC =    1
 II,JST,KST,LST =  2  1  1  1 NREC =         1 INTLOC =    2
 II,JST,KST,LST =  3  1  1  1 NREC =         1 INTLOC =   34
 II,JST,KST,LST =  4  1  1  1 NREC =         1 INTLOC =  214
 II,JST,KST,LST =  5  1  1  1 NREC =         1 INTLOC =  776
 II,JST,KST,LST =  6  1  1  1 NREC =         1 INTLOC = 2074
 II,JST,KST,LST =  7  1  1  1 NREC =         1 INTLOC = 5929
 II,JST,KST,LST =  8  1  1  1 NREC =         1 INTLOC = 9492
 II,JST,KST,LST =  9  1  1  1 NREC =         3 INTLOC = 1803
 II,JST,KST,LST = 10  1  1  1 NREC =         6 INTLOC = 4209
 II,JST,KST,LST = 11  1  1  1 NREC =        11 INTLOC = 2228
 II,JST,KST,LST = 12  1  1  1 NREC =        17 INTLOC =13119
 II,JST,KST,LST = 13  1  1  1 NREC =        30 INTLOC =10029
 II,JST,KST,LST = 14  1  1  1 NREC =        31 INTLOC = 7430
 II,JST,KST,LST = 15  1  1  1 NREC =        35 INTLOC =10386
 II,JST,KST,LST = 16  1  1  1 NREC =        42 INTLOC = 9093
 II,JST,KST,LST = 17  1  1  1 NREC =        58 INTLOC =13353
 II,JST,KST,LST = 18  1  1  1 NREC =        82 INTLOC =12365
 II,JST,KST,LST = 19  1  1  1 NREC =       104 INTLOC =13601
 II,JST,KST,LST = 20  1  1  1 NREC =       107 INTLOC = 7904
 II,JST,KST,LST = 21  1  1  1 NREC =       120 INTLOC = 5740
 II,JST,KST,LST = 22  1  1  1 NREC =       142 INTLOC =13674
 II,JST,KST,LST = 23  1  1  1 NREC =       185 INTLOC = 3621
 II,JST,KST,LST = 24  1  1  1 NREC =       243 INTLOC = 2616
 II,JST,KST,LST = 25  1  1  1 NREC =       300 INTLOC = 9110
 II,JST,KST,LST = 26  1  1  1 NREC =       312 INTLOC =12885
 II,JST,KST,LST = 27  1  1  1 NREC =       367 INTLOC =13289
 II,JST,KST,LST = 28  1  1  1 NREC =       444 INTLOC = 3779
 II,JST,KST,LST = 29  1  1  1 NREC =       551 INTLOC =11240
 II,JST,KST,LST = 30  1  1  1 NREC =       677 INTLOC =10230
 II,JST,KST,LST = 31  1  1  1 NREC =       852 INTLOC = 3316
 II,JST,KST,LST = 32  1  1  1 NREC =       877 INTLOC =11179
 II,JST,KST,LST = 33  1  1  1 NREC =       996 INTLOC = 1449
 II,JST,KST,LST = 34  1  1  1 NREC =      1180 INTLOC =12994
 II,JST,KST,LST = 35  1  1  1 NREC =      1396 INTLOC = 7888
 II,JST,KST,LST = 36  1  1  1 NREC =      1635 INTLOC =14104
 II,JST,KST,LST = 37  1  1  1 NREC =      2026 INTLOC = 5712
 II,JST,KST,LST = 38  1  1  1 NREC =      2076 INTLOC = 7309
 II,JST,KST,LST = 39  1  1  1 NREC =      2293 INTLOC = 9794
 II,JST,KST,LST = 40  1  1  1 NREC =      2597 INTLOC =12915
 II,JST,KST,LST = 41  1  1  1 NREC =      2966 INTLOC = 8718
 II,JST,KST,LST = 42  1  1  1 NREC =      3370 INTLOC =13571
 II,JST,KST,LST = 43  1  1  1 NREC =      3957 INTLOC = 9733
 II,JST,KST,LST = 44  1  1  1 NREC =      4043 INTLOC =  301
 II,JST,KST,LST = 45  1  1  1 NREC =      4162 INTLOC = 5088
 II,JST,KST,LST = 46  1  1  1 NREC =      4288 INTLOC = 5754
 II,JST,KST,LST = 47  1  1  1 NREC =      4417 INTLOC =  901
 II,JST,KST,LST = 48  1  1  1 NREC =      4756 INTLOC = 9468
 II,JST,KST,LST = 49  1  1  1 NREC =      4855 INTLOC = 7933
 II,JST,KST,LST = 50  1  1  1 NREC =      4992 INTLOC =   66
 II,JST,KST,LST = 51  1  1  1 NREC =      5135 INTLOC =13905
 II,JST,KST,LST = 52  1  1  1 NREC =      5282 INTLOC =11112
 SCHWARZ INEQUALITY TEST SKIPPED      200571 INTEGRAL BLOCKS.
 TOTAL NUMBER OF NONZERO TWO-ELECTRON INTEGRALS =            85066265
       5672 INTEGRAL RECORDS WERE STORED ON DISK FILE  8.
  ...... END OF TWO-ELECTRON INTEGRALS .....
 STEP CPU TIME =     3.37 TOTAL CPU TIME =          3.4 (      0.1 MIN)
 TOTAL WALL CLOCK TIME=          3.8 SECONDS, CPU UTILIZATION IS    91.47%

          ---------------------------
             RO-B3LYP SCF CALCULATION
          ---------------------------

     NUCLEAR ENERGY =       288.7222743462
     MAXIT = 30     NPUNCH=  2     MULT=  1
     EXTRAP=T  DAMP=F  SHIFT=F  RSTRCT=F  DIIS=T  SOSCF=F
         DENSITY MATRIX CONVERGENCE THRESHOLD=  1.00E-05
     COARSE -> FINE DFT GRID SWITCH THRESHOLD=  3.00E-04 (SWITCH IN $DFT)
                   HF -> DFT SWITCH THRESHOLD=  5.00E-03 (SWOFF IN $DFT)
     ROHF CANONICALIZATION PARAMETERS
             C-C     O-O     V-V
     ALPHA -0.5000  0.5000  1.5000
     BETA   1.5000  0.5000 -0.5000
     MEMORY REQUIRED FOR UHF/ROHF ITERS=    656992 WORDS.

 DFT CODE IS SWITCHING FROM THE FINE GRID NRAD= 96,  NLEB=  302
                      TO THE COARSE GRID NRAD0= 24, NLEB0=  110

     EXCHANGE FUNCTIONAL   =B88&HFX   
     CORRELATION FUNCTIONAL=LYP88&VWN5
     DFT THRESHOLD         =.153E-07
     GRID CHANGE THRESHOLD =.300E-03
 FOR AN EULER-MACLAURIN QUADRATURE USING  96 RADIAL POINTS:
 SMALLEST GAUSSIAN PRIMITIVE EXPONENT=        0.0360000000 OF TYPE -S-
 ON ATOM NUMBER   8 HAS RADIAL NORMALIZATION=  1.000000
  LARGEST GAUSSIAN PRIMITIVE EXPONENT=     8588.5000000000 OF TYPE -S-
 ON ATOM NUMBER   1 HAS RADIAL NORMALIZATION=  1.000000
 DFT IS SWITCHED OFF, PERFORMING PURE SCF UNTIL SWOFF THRESHOLD IS REACHED.

 ITER EX      TOTAL ENERGY        E CHANGE  DENSITY CHANGE    DIIS ERROR
   1  0     -428.9400349172  -428.9400349172   0.823041800   1.475877716
          * * *   INITIATING DIIS PROCEDURE   * * *
   2  1     -430.3245291623    -1.3844942451   0.342770122   0.347520042
   3  2     -430.4854442463    -0.1609150840   0.185745521   0.327360045
   4  3     -430.8326220014    -0.3471777551   0.021166054   0.011151020
   5  4     -430.8356804309    -0.0030584296   0.008720769   0.006117694
   6  5     -430.8362756646    -0.0005952337   0.004646695   0.002597232
 CONVERGED TO SWOFF, SO DFT CALCULATION IS NOW SWITCHED ON.
          * * *   INITIATING DIIS PROCEDURE   * * *
   7  6     -432.9167293703    -2.0804537057   0.174078608   0.140613573
   8  7     -432.9677944633    -0.0510650931   0.103255183   0.062829602
   9  8     -432.9452542862     0.0225401771   0.056608105   0.100618381
  10  9     -432.9862971902    -0.0410429040   0.009619718   0.012878867
  11 10     -432.9870547796    -0.0007575893   0.006619189   0.003515164
  12 11     -432.9871095098    -0.0000547303   0.003629618   0.002166250
  13 12     -432.9871306394    -0.0000211295   0.000615751   0.000511324
  14 13     -432.9871320550    -0.0000014156   0.000309943   0.000204584
  15 14     -432.9871323923    -0.0000003373   0.000073664   0.000096568
 DFT CODE IS SWITCHING BACK TO THE FINE GRID
          * * *   INITIATING DIIS PROCEDURE   * * *
  16 15     -432.9884591315    -0.0013267392   0.007898322   0.001669453
  17 16     -432.9884866479    -0.0000275164   0.001116273   0.000393907
  18 17     -432.9884837394     0.0000029086   0.000632212   0.000899027
  19 18     -432.9884873049    -0.0000035655   0.000155131   0.000371201
  20 19     -432.9884875220    -0.0000002171   0.000047804   0.000131964
  21 20     -432.9884875690    -0.0000000470   0.000022226   0.000021858
  22 21     -432.9884875719    -0.0000000029   0.000008844   0.000010141
  23 22     -432.9884875723    -0.0000000004   0.000004661   0.000003584

          -----------------
          DENSITY CONVERGED
          -----------------
     TIME TO FORM FOCK OPERATORS=      88.0 SECONDS (       3.8 SEC/ITER)
     TIME TO SOLVE SCF EQUATIONS=       1.4 SECONDS (       0.1 SEC/ITER)

 FINAL RO-B3LYP ENERGY IS     -432.9884875723 AFTER  23 ITERATIONS
 DFT EXCHANGE + CORRELATION ENERGY =       -42.6145164608
 TOTAL ELECTRON NUMBER             =        53.9998623610

          --------------------
          SPIN SZ   =    0.000
          S-SQUARED =    0.000
          --------------------

          ------------
          EIGENVECTORS
          ------------

                      1          2          3          4          5
                  -19.0196   -19.0195   -18.9207   -18.9200   -14.4024
                     A          A          A          A          A   
    1  O  1  S    0.000001   0.000001   0.551765   0.003575  -0.000001
    2  O  1  S   -0.000001  -0.000003   0.466328   0.003039   0.000006
    3  O  1  X    0.000001   0.000002   0.001188  -0.000000  -0.000014
    4  O  1  Y   -0.000000  -0.000001  -0.000721   0.000015   0.000006
    5  O  1  Z   -0.000002   0.000001  -0.000086   0.000002   0.000001
    6  O  1  S   -0.000006  -0.000015   0.020692   0.000158   0.000015
    7  O  1  X   -0.000004  -0.000009  -0.000745   0.000033   0.000061
    8  O  1  Y    0.000002   0.000006   0.000448  -0.000050  -0.000027
    9  O  1  Z    0.000007  -0.000002   0.000053  -0.000005  -0.000003
   10  O  1  S    0.000082   0.000186   0.002556  -0.000528  -0.000221
   11  O  1  X    0.000023   0.000054   0.000757  -0.000262  -0.000198
   12  O  1  Y   -0.000018  -0.000040  -0.000371  -0.000115   0.000084
   13  O  1  Z   -0.000004  -0.000004  -0.000045  -0.000010   0.000010
   14  O  1  S    0.000110   0.000248  -0.000136  -0.000745  -0.001083
   15  O  1  X    0.000006   0.000010   0.000083  -0.000220  -0.000378
   16  O  1  Y   -0.000046  -0.000096  -0.000131   0.000066   0.000129
   17  O  1  Z    0.000041  -0.000029  -0.000014   0.000009   0.000017
   18  O  1 XX   -0.000005  -0.000011  -0.006009  -0.000054   0.000023
   19  O  1 YY   -0.000004  -0.000011  -0.005991   0.000061   0.000023
   20  O  1 ZZ   -0.000006  -0.000013  -0.005981   0.000004   0.000016
   21  O  1 XY   -0.000001  -0.000001   0.000042  -0.000046  -0.000006
   22  O  1 XZ    0.000001  -0.000001   0.000005  -0.000004  -0.000001
   23  O  1 YZ   -0.000003   0.000001  -0.000002   0.000007   0.000001
   24  O  2  S    0.000000   0.000000  -0.003581   0.551764  -0.000001
   25  O  2  S   -0.000000  -0.000000  -0.003010   0.466324   0.000007
   26  O  2  X    0.000003   0.000006   0.000018  -0.000242  -0.000011
   27  O  2  Y   -0.000000   0.000001  -0.000024   0.001408  -0.000011
   28  O  2  Z    0.000007  -0.000003  -0.000003   0.000150  -0.000001
   29  O  2  S    0.000005   0.000010  -0.000108   0.020696   0.000003
   30  O  2  X   -0.000009  -0.000021  -0.000041   0.000147   0.000030
   31  O  2  Y    0.000002  -0.000002   0.000062  -0.000894   0.000043
   32  O  2  Z   -0.000025   0.000010   0.000007  -0.000095   0.000005
   33  O  2  S   -0.000081  -0.000175  -0.000565   0.002612  -0.000051
   34  O  2  X   -0.000000   0.000000  -0.000201  -0.000075   0.000030
   35  O  2  Y   -0.000039  -0.000068  -0.000225   0.000858  -0.000071
   36  O  2  Z    0.000051  -0.000030  -0.000022   0.000091  -0.000009
   37  O  2  S   -0.000168  -0.000385  -0.000837  -0.000058   0.000385
   38  O  2  X   -0.000088  -0.000207  -0.000102  -0.000151  -0.000017
   39  O  2  Y   -0.000047  -0.000115  -0.000261   0.000150   0.000146
   40  O  2  Z   -0.000039   0.000003  -0.000026   0.000016   0.000017
   41  O  2 XX    0.000001   0.000002   0.000094  -0.005978   0.000026
   42  O  2 YY    0.000000   0.000001   0.000069  -0.006048   0.000017
   43  O  2 ZZ   -0.000002  -0.000006   0.000082  -0.005988   0.000021
   44  O  2 XY   -0.000001  -0.000001  -0.000080   0.000021   0.000007
   45  O  2 XZ    0.000003  -0.000001  -0.000009   0.000002   0.000001
   46  O  2 YZ    0.000002   0.000000  -0.000001  -0.000008  -0.000000
   47  O  3  S   -0.205993   0.511880   0.000000  -0.000000  -0.000039
   48  O  3  S   -0.174095   0.432668  -0.000003  -0.000001  -0.000008
   49  O  3  X    0.000245  -0.000601  -0.000001  -0.000003   0.000026
   50  O  3  Y   -0.000103   0.000253  -0.000001  -0.000003  -0.000009
   51  O  3  Z   -0.000571   0.001354  -0.000000  -0.000000  -0.000065
   52  O  3  S   -0.007684   0.019093  -0.000013   0.000000  -0.000123
   53  O  3  X   -0.000156   0.000327   0.000005   0.000009  -0.000216
   54  O  3  Y    0.000066  -0.000128   0.000003   0.000012   0.000080
   55  O  3  Z    0.000380  -0.000730  -0.000001   0.000002   0.000499
   56  O  3  S   -0.001451   0.002762   0.000118   0.000002  -0.000288
   57  O  3  X    0.000336  -0.000346  -0.000055  -0.000019   0.000119
   58  O  3  Y   -0.000189   0.000105  -0.000027  -0.000016  -0.000024
   59  O  3  Z   -0.000356   0.000875   0.000019  -0.000003  -0.000302
   60  O  3  S    0.001911  -0.003901  -0.000340  -0.000297  -0.001007
   61  O  3  X   -0.000273   0.000511   0.000091   0.000108  -0.000013
   62  O  3  Y    0.000202  -0.000100   0.000087   0.000086  -0.000016
   63  O  3  Z    0.000317  -0.000844  -0.000070  -0.000077  -0.000352
   64  O  3 XX    0.002239  -0.005524  -0.000007  -0.000001   0.000044
   65  O  3 YY    0.002252  -0.005518  -0.000011  -0.000002  -0.000038
   66  O  3 ZZ    0.002342  -0.005557  -0.000011  -0.000000   0.000396
   67  O  3 XY    0.000018   0.000002  -0.000002   0.000002  -0.000044
   68  O  3 XZ   -0.000011   0.000036  -0.000004  -0.000004  -0.000226
   69  O  3 YZ   -0.000002  -0.000018  -0.000004   0.000004   0.000086
   70  O  4  S    0.511883   0.205988   0.000000  -0.000000  -0.000039
   71  O  4  S    0.432655   0.174127  -0.000003  -0.000000  -0.000009
   72  O  4  X   -0.000611  -0.000243  -0.000001  -0.000003   0.000026
   73  O  4  Y    0.000519   0.000203  -0.000001  -0.000003  -0.000022
   74  O  4  Z   -0.001292  -0.000495  -0.000000  -0.000000   0.000061
   75  O  4  S    0.019094   0.007683  -0.000013   0.000001  -0.000123
   76  O  4  X    0.000348   0.000115   0.000005   0.000009  -0.000219
   77  O  4  Y   -0.000291  -0.000086   0.000003   0.000012   0.000177
   78  O  4  Z    0.000746   0.000218   0.000002   0.000000  -0.000472
   79  O  4  S    0.002999   0.000869   0.000125  -0.000011  -0.000287
   80  O  4  X   -0.000488  -0.000000  -0.000056  -0.000017   0.000119
   81  O  4  Y    0.000376   0.000007  -0.000022  -0.000018  -0.000082
   82  O  4  Z   -0.000818  -0.000355  -0.000026   0.000004   0.000290
   83  O  4  S   -0.004135  -0.001323  -0.000338  -0.000286  -0.000989
   84  O  4  X    0.000562   0.000160   0.000093   0.000105  -0.000011
   85  O  4  Y   -0.000370   0.000005   0.000073   0.000071  -0.000084
   86  O  4  Z    0.000767   0.000364   0.000085   0.000089   0.000340
   87  O  4 XX   -0.005536  -0.002212  -0.000008  -0.000000   0.000046
   88  O  4 YY   -0.005548  -0.002201  -0.000012  -0.000000   0.000008
   89  O  4 ZZ   -0.005623  -0.002156  -0.000010  -0.000001   0.000348
   90  O  4 XY   -0.000004   0.000018  -0.000003   0.000001  -0.000088
   91  O  4 XZ   -0.000036  -0.000014   0.000003   0.000004   0.000215
   92  O  4 YZ    0.000031   0.000005   0.000003  -0.000004  -0.000176
   93  N  5  S   -0.000003  -0.000006  -0.000002  -0.000002   0.558063
   94  N  5  S    0.000018   0.000043   0.000008   0.000007   0.462385
   95  N  5  X   -0.000028  -0.000065   0.000017   0.000012   0.000455
   96  N  5  Y    0.000035   0.000035   0.000007  -0.000005  -0.000350
   97  N  5  Z   -0.000168   0.000077   0.000001  -0.000000  -0.000035
   98  N  5  S   -0.000062  -0.000146   0.000016   0.000011   0.020259
   99  N  5  X    0.000094   0.000217  -0.000075  -0.000042  -0.000176
  100  N  5  Y   -0.000115  -0.000120  -0.000024   0.000027   0.000181
  101  N  5  Z    0.000531  -0.000243  -0.000002   0.000002   0.000018
  102  N  5  S   -0.000427  -0.001006  -0.000004  -0.000335   0.006033
  103  N  5  X   -0.000256  -0.000585   0.000101   0.000172  -0.000120
  104  N  5  Y    0.000306   0.000323   0.000154  -0.000138  -0.000050
  105  N  5  Z   -0.001403   0.000643   0.000009  -0.000005  -0.000006
  106  N  5  S    0.002316   0.005434   0.000801   0.000770  -0.002820
  107  N  5  X   -0.000008  -0.000033  -0.000179  -0.000139   0.001314
  108  N  5  Y   -0.000370  -0.000248  -0.000367  -0.000260  -0.000583
  109  N  5  Z    0.002217  -0.000988  -0.000039  -0.000029  -0.000074
  110  N  5 XX    0.000019   0.000042   0.000020   0.000031  -0.006704
  111  N  5 YY    0.000051   0.000035   0.000025   0.000022  -0.006639
  112  N  5 ZZ    0.000158   0.000459   0.000025   0.000009  -0.006857
  113  N  5 XY   -0.000034   0.000004  -0.000005   0.000006   0.000061
  114  N  5 XZ    0.000301  -0.000128  -0.000000   0.000001   0.000005
  115  N  5 YZ   -0.000194   0.000028   0.000000   0.000001   0.000025
  116  C  6  S   -0.000002  -0.000005  -0.000005  -0.000003   0.000002
  117  C  6  S    0.000008   0.000020   0.000019   0.000011   0.000002
  118  C  6  X   -0.000007  -0.000016   0.000023   0.000018  -0.000095
  119  C  6  Y    0.000011   0.000019   0.000017   0.000032   0.000043
  120  C  6  Z   -0.000023   0.000012   0.000002   0.000003   0.000005
  121  C  6  S    0.000057   0.000131   0.000063  -0.000015  -0.000044
  122  C  6  X    0.000046   0.000107  -0.000102  -0.000072   0.000294
  123  C  6  Y   -0.000062  -0.000117  -0.000117  -0.000107  -0.000193
  124  C  6  Z    0.000095  -0.000055  -0.000011  -0.000011  -0.000021
  125  C  6  S   -0.000594  -0.001375  -0.000537   0.000103  -0.001507
  126  C  6  X   -0.000099  -0.000230  -0.000153   0.000474  -0.000294
  127  C  6  Y    0.000128   0.000392   0.000239  -0.000259   0.000236
  128  C  6  Z    0.000383  -0.000115   0.000034  -0.000038   0.000024
  129  C  6  S    0.000081   0.000203  -0.001932  -0.000549   0.004402
  130  C  6  X   -0.000270  -0.000635   0.000599   0.000050   0.000728
  131  C  6  Y   -0.000051  -0.000275   0.000481   0.000575  -0.000352
  132  C  6  Z   -0.000570   0.000218   0.000048   0.000054  -0.000027
  133  C  6 XX    0.000059   0.000138   0.000126  -0.000012   0.000305
  134  C  6 YY    0.000046   0.000095   0.000024   0.000095   0.000012
  135  C  6 ZZ   -0.000006   0.000000   0.000027   0.000044  -0.000106
  136  C  6 XY   -0.000014  -0.000013   0.000067   0.000076  -0.000250
  137  C  6 XZ    0.000067  -0.000031   0.000006   0.000008  -0.000026
  138  C  6 YZ   -0.000022   0.000023  -0.000001   0.000005   0.000014
  139  C  7  S    0.000001   0.000002   0.000008   0.000010  -0.000001
  140  C  7  S   -0.000003  -0.000007  -0.000033  -0.000038   0.000005
  141  C  7  X    0.000004   0.000009   0.000097  -0.000013  -0.000036
  142  C  7  Y   -0.000000   0.000000  -0.000055   0.000107  -0.000009
  143  C  7  Z    0.000001  -0.000000  -0.000007   0.000011  -0.000001
  144  C  7  S   -0.000020  -0.000047  -0.000056  -0.000030  -0.000035
  145  C  7  X   -0.000015  -0.000035  -0.000412   0.000074   0.000154
  146  C  7  Y   -0.000002  -0.000005   0.000245  -0.000509   0.000026
  147  C  7  Z   -0.000005   0.000002   0.000029  -0.000054   0.000001
  148  C  7  S    0.000175   0.000393  -0.000726  -0.000995   0.001066
  149  C  7  X    0.000218   0.000497   0.001391  -0.000711  -0.000176
  150  C  7  Y   -0.000068  -0.000173  -0.001272   0.001839   0.000433
  151  C  7  Z   -0.000111   0.000021  -0.000148   0.000201   0.000048
  152  C  7  S   -0.000546  -0.001287   0.002651   0.001650  -0.000130
  153  C  7  X   -0.000071  -0.000167   0.000394   0.000468  -0.000190
  154  C  7  Y   -0.000077  -0.000164   0.000622   0.000038   0.000214
  155  C  7  Z    0.000057  -0.000042   0.000059   0.000001   0.000020
  156  C  7 XX   -0.000010  -0.000023   0.000280  -0.000149   0.000041
  157  C  7 YY   -0.000004  -0.000016   0.000039   0.000503  -0.000003
  158  C  7 ZZ   -0.000019  -0.000038  -0.000032  -0.000030   0.000007
  159  C  7 XY    0.000002   0.000004  -0.000373  -0.000177   0.000068
  160  C  7 XZ   -0.000004   0.000002  -0.000042  -0.000017   0.000006
  161  C  7 YZ   -0.000012   0.000009   0.000012   0.000067  -0.000001
  162  H  8  S    0.000001  -0.000002  -0.000029   0.000003   0.000021
  163  H  8  S    0.000139   0.000125   0.000166  -0.000022   0.000340
  164  H  8  S    0.000028  -0.000214   0.000013  -0.000118   0.000063
  165  H  8  S   -0.000183   0.000243  -0.000158  -0.000302  -0.000718
  166  H  8  X   -0.000027   0.000020  -0.000020  -0.000010  -0.000001
  167  H  8  Y   -0.000022  -0.000041  -0.000044   0.000039  -0.000047
  168  H  8  Z    0.000002   0.000008   0.000029   0.000010   0.000063
  169  H  9  S   -0.000002  -0.000001  -0.000028   0.000003   0.000021
  170  H  9  S   -0.000005   0.000185   0.000161  -0.000016   0.000342
  171  H  9  S   -0.000173  -0.000128   0.000006  -0.000111   0.000062
  172  H  9  S    0.000302   0.000035  -0.000161  -0.000297  -0.000731
  173  H  9  X    0.000033  -0.000005  -0.000020  -0.000010  -0.000002
  174  H  9  Y   -0.000014  -0.000042  -0.000037   0.000039  -0.000035
  175  H  9  Z   -0.000007  -0.000015  -0.000036  -0.000003  -0.000071

                      6          7          8          9         10
                  -10.1239   -10.0824    -1.0527    -0.8874    -0.8668
                     A          A          A          A          A   
    1  O  1  S   -0.000063  -0.000002  -0.000623   0.000011  -0.070520
    2  O  1  S   -0.000117   0.000018  -0.000995   0.000018  -0.113185
    3  O  1  X    0.000086  -0.000013   0.000496  -0.000008   0.041447
    4  O  1  Y   -0.000062   0.000019  -0.000195   0.000008  -0.027800
    5  O  1  Z   -0.000007   0.000002  -0.000024  -0.000042  -0.003270
    6  O  1  S    0.000279   0.000118   0.002697  -0.000050   0.324720
    7  O  1  X    0.000510   0.000101   0.001016  -0.000013   0.060902
    8  O  1  Y   -0.000317  -0.000086  -0.000470   0.000023  -0.042241
    9  O  1  Z   -0.000038  -0.000009  -0.000056  -0.000183  -0.004950
   10  O  1  S    0.000462  -0.000931   0.002376  -0.000056   0.227961
   11  O  1  X    0.000158  -0.000508  -0.000578  -0.000010   0.022769
   12  O  1  Y   -0.000107   0.000320   0.000160   0.000001  -0.016697
   13  O  1  Z   -0.000013   0.000037   0.000015   0.000143  -0.001956
   14  O  1  S   -0.003528  -0.002112  -0.009194  -0.000062  -0.038932
   15  O  1  X   -0.001375  -0.000296  -0.004850  -0.000012  -0.009746
   16  O  1  Y    0.000520   0.000189   0.000070   0.000154   0.001234
   17  O  1  Z    0.000067   0.000028   0.000042  -0.001838   0.000234
   18  O  1 XX    0.000112   0.000040   0.000097  -0.000002   0.002744
   19  O  1 YY   -0.000009   0.000062  -0.000069  -0.000005  -0.001367
   20  O  1 ZZ   -0.000104   0.000100  -0.000110   0.000007  -0.006182
   21  O  1 XY   -0.000140  -0.000033  -0.000120   0.000006  -0.009004
   22  O  1 XZ   -0.000017  -0.000003  -0.000015  -0.000037  -0.001034
   23  O  1 YZ    0.000013  -0.000004   0.000006   0.000028   0.000667
   24  O  2  S   -0.000069  -0.000001  -0.001586   0.000000  -0.072481
   25  O  2  S   -0.000125   0.000013  -0.002500  -0.000000  -0.116330
   26  O  2  X   -0.000014  -0.000004   0.000410   0.000001  -0.010727
   27  O  2  Y    0.000122  -0.000013   0.001280   0.000028   0.050710
   28  O  2  Z    0.000013  -0.000001   0.000132  -0.000283   0.005416
   29  O  2  S    0.000341  -0.000001   0.007152  -0.000007   0.333699
   30  O  2  X   -0.000148   0.000007   0.000513   0.000001  -0.017110
   31  O  2  Y    0.000559   0.000075   0.002264   0.000004   0.074734
   32  O  2  Z    0.000060   0.000008   0.000237  -0.000048   0.007992
   33  O  2  S    0.000003   0.000556   0.002984   0.000063   0.233125
   34  O  2  X    0.000043   0.000121   0.000869   0.000007  -0.007458
   35  O  2  Y    0.000113   0.000347  -0.000206   0.000152   0.027837
   36  O  2  Z    0.000012   0.000034  -0.000028  -0.001285   0.002981
   37  O  2  S   -0.003597   0.002460  -0.000761  -0.000046  -0.039834
   38  O  2  X    0.000002   0.000857  -0.004490   0.000015  -0.004026
   39  O  2  Y   -0.001728   0.000475   0.000313  -0.000242  -0.010727
   40  O  2  Z   -0.000180   0.000051   0.000058   0.002208  -0.001085
   41  O  2 XX   -0.000062  -0.000010   0.000007  -0.000003  -0.006651
   42  O  2 YY    0.000159   0.000076   0.000357   0.000012   0.007959
   43  O  2 ZZ   -0.000100   0.000059  -0.000157  -0.000016  -0.006212
   44  O  2 XY   -0.000057  -0.000002   0.000087   0.000007  -0.005013
   45  O  2 XZ   -0.000006   0.000001   0.000008  -0.000065  -0.000523
   46  O  2 YZ    0.000032   0.000002   0.000063  -0.000074   0.001781
   47  O  3  S    0.000001  -0.000002  -0.059232  -0.079869   0.003761
   48  O  3  S   -0.000006   0.000017  -0.094761  -0.128846   0.006041
   49  O  3  X   -0.000006   0.000014  -0.020345  -0.025400  -0.000163
   50  O  3  Y    0.000001  -0.000004   0.007788   0.011860  -0.000292
   51  O  3  Z    0.000005  -0.000002   0.049555   0.042216  -0.002637
   52  O  3  S   -0.000027   0.000125   0.273533   0.376771  -0.018081
   53  O  3  X    0.000032  -0.000081  -0.031947  -0.039227   0.000023
   54  O  3  Y   -0.000000   0.000021   0.012311   0.018144  -0.000307
   55  O  3  Z   -0.000025   0.000031   0.077675   0.065260  -0.004268
   56  O  3  S    0.000190  -0.000851   0.181561   0.286120  -0.012446
   57  O  3  X   -0.000120   0.000492  -0.009732  -0.017210  -0.000581
   58  O  3  Y   -0.000012  -0.000147   0.003728   0.010263  -0.000883
   59  O  3  Z    0.000189  -0.000393   0.025941   0.025544  -0.000991
   60  O  3  S    0.000550   0.002783  -0.093242  -0.165036  -0.001869
   61  O  3  X   -0.000585  -0.001476   0.009129   0.023562  -0.001768
   62  O  3  Y    0.000204   0.000231  -0.000735  -0.011650   0.004081
   63  O  3  Z   -0.000007   0.000623  -0.023464  -0.031050  -0.001392
   64  O  3 XX   -0.000011   0.000024  -0.004920  -0.004311   0.000432
   65  O  3 YY   -0.000032   0.000100  -0.006795  -0.006718   0.000184
   66  O  3 ZZ   -0.000020   0.000073   0.009350   0.003117  -0.000631
   67  O  3 XY    0.000003   0.000049  -0.000570  -0.001145  -0.000040
   68  O  3 XZ   -0.000007   0.000028  -0.008188  -0.008569   0.000112
   69  O  3 YZ   -0.000000  -0.000012   0.003158   0.004128  -0.000122
   70  O  4  S    0.000001  -0.000002  -0.059316   0.079795   0.003781
   71  O  4  S   -0.000006   0.000017  -0.094897   0.128727   0.006073
   72  O  4  X   -0.000006   0.000014  -0.020656   0.025620  -0.000145
   73  O  4  Y    0.000002  -0.000004   0.017433  -0.019932  -0.000811
   74  O  4  Z   -0.000005   0.000001  -0.046994   0.038860   0.002539
   75  O  4  S   -0.000027   0.000125   0.273926  -0.376415  -0.018166
   76  O  4  X    0.000032  -0.000080  -0.032425   0.039562   0.000052
   77  O  4  Y   -0.000006   0.000026   0.027421  -0.030622  -0.001149
   78  O  4  Z    0.000024  -0.000026  -0.073627   0.060100   0.004138
   79  O  4  S    0.000198  -0.000862   0.181794  -0.285891  -0.012613
   80  O  4  X   -0.000124   0.000498  -0.009912   0.017343  -0.000555
   81  O  4  Y    0.000028  -0.000223   0.008789  -0.015082  -0.001086
   82  O  4  Z   -0.000189   0.000358  -0.024677   0.022892   0.000838
   83  O  4  S    0.000569   0.002766  -0.092994   0.165127  -0.001525
   84  O  4  X   -0.000583  -0.001479   0.009261  -0.023763  -0.001759
   85  O  4  Y    0.000200   0.000343  -0.005330   0.017529   0.003789
   86  O  4  Z    0.000053  -0.000562   0.022791  -0.028008   0.002136
   87  O  4 XX   -0.000011   0.000024  -0.004847   0.004225   0.000436
   88  O  4 YY   -0.000032   0.000095  -0.005115   0.004950   0.000116
   89  O  4 ZZ   -0.000021   0.000078   0.007590  -0.001260  -0.000555
   90  O  4 XY    0.000001   0.000054  -0.002215   0.002846  -0.000015
   91  O  4 XZ    0.000007  -0.000018   0.008010  -0.008207  -0.000127
   92  O  4 YZ   -0.000003   0.000017  -0.006511   0.005978   0.000297
   93  N  5  S   -0.000001  -0.000038  -0.090392  -0.000041   0.000785
   94  N  5  S    0.000009  -0.000034  -0.141713  -0.000064   0.001341
   95  N  5  X    0.000012   0.000059   0.032071  -0.000369  -0.008933
   96  N  5  Y   -0.000009  -0.000039  -0.019459   0.013422   0.002697
   97  N  5  Z   -0.000001  -0.000004  -0.001938  -0.134737   0.000280
   98  N  5  S   -0.000002  -0.000118   0.408582   0.000193  -0.004531
   99  N  5  X   -0.000089  -0.000650   0.052417  -0.000556  -0.015287
  100  N  5  Y    0.000028   0.000377  -0.032127   0.020497   0.004131
  101  N  5  Z    0.000003   0.000039  -0.003222  -0.205793   0.000430
  102  N  5  S    0.000096   0.000335   0.204063   0.000100   0.001819
  103  N  5  X   -0.000405   0.000638  -0.000267  -0.000126  -0.005968
  104  N  5  Y    0.000220  -0.000405   0.003086   0.004972   0.001879
  105  N  5  Z    0.000017  -0.000033   0.000324  -0.049994   0.000261
  106  N  5  S   -0.001364  -0.017054   0.094890  -0.000164   0.011746
  107  N  5  X    0.001375   0.005017   0.028070  -0.000277   0.004781
  108  N  5  Y   -0.000770  -0.001140  -0.021921   0.012032  -0.014475
  109  N  5  Z   -0.000096  -0.000117  -0.002466  -0.120566  -0.001659
  110  N  5 XX    0.000044   0.000468  -0.004192  -0.000106   0.001810
  111  N  5 YY    0.000027   0.000038  -0.011022  -0.002339   0.000378
  112  N  5 ZZ    0.000029  -0.000068   0.020536   0.002463  -0.001517
  113  N  5 XY   -0.000041  -0.000391  -0.007086   0.002300   0.000125
  114  N  5 XZ   -0.000004  -0.000041  -0.000611  -0.022722  -0.000000
  115  N  5 YZ    0.000000   0.000013  -0.003656   0.013414   0.000222
  116  C  6  S    0.000808   0.563664  -0.015099  -0.000004  -0.013678
  117  C  6  S    0.000707   0.459385  -0.022809  -0.000006  -0.020571
  118  C  6  X    0.000154   0.000971   0.016612  -0.000021  -0.008790
  119  C  6  Y    0.000117  -0.000226  -0.008094   0.000847  -0.006701
  120  C  6  Z    0.000010  -0.000028  -0.000857  -0.008502  -0.000612
  121  C  6  S    0.000035   0.021674   0.059274   0.000012   0.055579
  122  C  6  X   -0.000641  -0.000793   0.028442  -0.000033  -0.018338
  123  C  6  Y   -0.000537   0.000155  -0.016745   0.001369  -0.017194
  124  C  6  Z   -0.000049   0.000019  -0.001752  -0.013744  -0.001611
  125  C  6  S   -0.002065   0.014275  -0.010349   0.000052   0.003637
  126  C  6  X    0.000318   0.001261  -0.000837   0.000007   0.002002
  127  C  6  Y    0.000919  -0.001477   0.003055   0.000305   0.003337
  128  C  6  Z    0.000090  -0.000158   0.000331  -0.003370   0.000264
  129  C  6  S   -0.001386   0.016280   0.097094  -0.000133  -0.066599
  130  C  6  X    0.000366   0.000985  -0.005045   0.000082   0.015889
  131  C  6  Y    0.000911  -0.001049  -0.014976  -0.001730   0.031352
  132  C  6  Z    0.000089  -0.000094  -0.001297   0.017784   0.002995
  133  C  6 XX    0.000486  -0.008986   0.008678  -0.000024   0.004584
  134  C  6 YY    0.000287  -0.008824  -0.000646  -0.000311   0.002834
  135  C  6 ZZ   -0.000011  -0.008906  -0.004812   0.000338  -0.001594
  136  C  6 XY    0.000492   0.000080  -0.007124   0.000466   0.005551
  137  C  6 XZ    0.000046   0.000008  -0.000759  -0.004640   0.000515
  138  C  6 YZ    0.000032   0.000009   0.000504   0.001775   0.000474
  139  C  7  S    0.563794  -0.000850  -0.002330   0.000009  -0.077363
  140  C  7  S    0.459607  -0.000663  -0.003528   0.000014  -0.119753
  141  C  7  X    0.000177  -0.000118   0.001695   0.000002  -0.030492
  142  C  7  Y    0.000183  -0.000096  -0.000169   0.000036  -0.023075
  143  C  7  Z    0.000017  -0.000009  -0.000028  -0.000420  -0.002186
  144  C  7  S    0.021158   0.000009   0.008218  -0.000037   0.318402
  145  C  7  X   -0.000271   0.000504   0.004237  -0.000010  -0.039953
  146  C  7  Y   -0.000252   0.000477   0.000812   0.000111  -0.028812
  147  C  7  Z   -0.000023   0.000046   0.000050  -0.001143  -0.002718
  148  C  7  S    0.012240  -0.001703   0.014576  -0.000021   0.115391
  149  C  7  X    0.000790  -0.002610   0.003975  -0.000025   0.012716
  150  C  7  Y   -0.000087   0.000684   0.003105  -0.000157   0.009131
  151  C  7  Z   -0.000017   0.000093   0.000310   0.001982   0.000845
  152  C  7  S    0.003776  -0.004334  -0.047168   0.000276   0.125197
  153  C  7  X    0.000337  -0.001804  -0.010529   0.000063   0.020862
  154  C  7  Y    0.000436  -0.000104  -0.002998   0.000225   0.014987
  155  C  7  Z    0.000041  -0.000008  -0.000240  -0.001704   0.001344
  156  C  7 XX   -0.008461   0.000406   0.001122  -0.000005  -0.002828
  157  C  7 YY   -0.008395   0.000147   0.000058   0.000018   0.014294
  158  C  7 ZZ   -0.008217   0.000070  -0.000988  -0.000016  -0.022982
  159  C  7 XY   -0.000141   0.000400   0.000879   0.000044  -0.022268
  160  C  7 XZ   -0.000012   0.000038   0.000072  -0.000431  -0.002537
  161  C  7 YZ   -0.000020   0.000005   0.000123  -0.000129   0.004759
  162  H  8  S    0.000059   0.000412   0.005245   0.003306   0.006332
  163  H  8  S    0.000117   0.000301   0.011330   0.002977   0.009603
  164  H  8  S    0.000308  -0.002244  -0.005011  -0.003903  -0.001935
  165  H  8  S   -0.000416  -0.001550  -0.008608   0.003285  -0.012569
  166  H  8  X    0.000095   0.000028   0.000760   0.000324  -0.000564
  167  H  8  Y    0.000020  -0.000274  -0.002090  -0.000525  -0.001440
  168  H  8  Z    0.000019   0.000428   0.001855   0.000011   0.001803
  169  H  9  S    0.000059   0.000411   0.005241  -0.003287   0.006343
  170  H  9  S    0.000114   0.000307   0.011314  -0.002958   0.009645
  171  H  9  S    0.000322  -0.002250  -0.005027   0.003910  -0.001815
  172  H  9  S   -0.000419  -0.001567  -0.008812  -0.003316  -0.012444
  173  H  9  X    0.000094   0.000024   0.000743  -0.000321  -0.000589
  174  H  9  Y    0.000023  -0.000186  -0.001694   0.000515  -0.001075
  175  H  9  Z   -0.000015  -0.000473  -0.002227   0.000115  -0.002050

                     11         12         13         14         15
                   -0.7900    -0.6672    -0.4836    -0.3986    -0.3850
                     A          A          A          A          A   
    1  O  1  S   -0.082864   0.013400  -0.020469  -0.024311   0.003447
    2  O  1  S   -0.133620   0.021728  -0.033412  -0.039890   0.005615
    3  O  1  X    0.042761   0.000057  -0.019809  -0.043540   0.003955
    4  O  1  Y   -0.020394   0.007705  -0.011173  -0.004697   0.002133
    5  O  1  Z   -0.002502   0.000804  -0.000955  -0.000065   0.000090
    6  O  1  S    0.384734  -0.063334   0.099991   0.119023  -0.018001
    7  O  1  X    0.063507   0.000271  -0.027523  -0.060765   0.005923
    8  O  1  Y   -0.029470   0.011328  -0.016788  -0.008471   0.002518
    9  O  1  Z   -0.003629   0.001181  -0.001455  -0.000288   0.000068
   10  O  1  S    0.294703  -0.056531   0.097085   0.136035  -0.009946
   11  O  1  X    0.029981  -0.002205  -0.017014  -0.035330   0.006761
   12  O  1  Y   -0.006986   0.007275  -0.010937  -0.008573   0.000862
   13  O  1  Z   -0.000988   0.000781  -0.000968  -0.000536  -0.000080
   14  O  1  S   -0.019510  -0.012965   0.011015   0.031893   0.000168
   15  O  1  X   -0.000931  -0.005526   0.007497   0.011017   0.006021
   16  O  1  Y   -0.002897  -0.001210   0.003585   0.004619  -0.000225
   17  O  1  Z   -0.000277  -0.000046   0.000300   0.000362   0.000010
   18  O  1 XX    0.005496   0.001515  -0.004044  -0.006339   0.000343
   19  O  1 YY   -0.006035  -0.000681   0.001610   0.002134   0.000348
   20  O  1 ZZ   -0.007296   0.000801  -0.000060   0.000250  -0.000524
   21  O  1 XY   -0.007188   0.001768  -0.001577  -0.000409  -0.000104
   22  O  1 XZ   -0.000880   0.000178  -0.000118   0.000030  -0.000035
   23  O  1 YZ    0.000215  -0.000196   0.000214   0.000230   0.000116
   24  O  2  S    0.081515   0.014124  -0.010784  -0.020695  -0.010093
   25  O  2  S    0.131429   0.022921  -0.017553  -0.033837  -0.016533
   26  O  2  X    0.003216   0.007630  -0.010704  -0.019948  -0.014758
   27  O  2  Y   -0.047192  -0.003220  -0.009238  -0.031169  -0.012049
   28  O  2  Z   -0.004985  -0.000407  -0.000828  -0.003069  -0.001262
   29  O  2  S   -0.378524  -0.066906   0.052320   0.102405   0.050745
   30  O  2  X    0.003888   0.011827  -0.016148  -0.030268  -0.021483
   31  O  2  Y   -0.069884  -0.004544  -0.011618  -0.042060  -0.017671
   32  O  2  Z   -0.007376  -0.000578  -0.001002  -0.004105  -0.001855
   33  O  2  S   -0.288121  -0.054573   0.052444   0.103646   0.045243
   34  O  2  X   -0.003929   0.005902  -0.009222  -0.021014  -0.017710
   35  O  2  Y   -0.029197  -0.002057  -0.006631  -0.027544  -0.010779
   36  O  2  Z   -0.003030  -0.000277  -0.000577  -0.002689  -0.001112
   37  O  2  S    0.020992   0.011605   0.004134   0.007409   0.031934
   38  O  2  X    0.004560   0.004675   0.007492  -0.001403   0.002877
   39  O  2  Y   -0.000611  -0.001424   0.002047  -0.000972   0.008075
   40  O  2  Z   -0.000067  -0.000102   0.000151  -0.000135   0.000838
   41  O  2 XX    0.008830   0.000871   0.000820   0.001002  -0.000299
   42  O  2 YY   -0.008416   0.000132  -0.001208  -0.003213  -0.001415
   43  O  2 ZZ    0.007010   0.000893  -0.000257   0.000470   0.000462
   44  O  2 XY    0.000570   0.002280  -0.002809  -0.003824  -0.001729
   45  O  2 XZ    0.000043   0.000240  -0.000305  -0.000410  -0.000175
   46  O  2 YZ   -0.001899  -0.000114  -0.000080  -0.000409  -0.000235
   47  O  3  S   -0.001306   0.037425   0.046850  -0.024918   0.017641
   48  O  3  S   -0.002134   0.060880   0.077068  -0.041366   0.029301
   49  O  3  X    0.000397  -0.018117  -0.031341   0.014481   0.053052
   50  O  3  Y    0.000412   0.010564   0.012150   0.054548   0.057920
   51  O  3  Z    0.000829  -0.007285   0.066347  -0.087031   0.075262
   52  O  3  S    0.006096  -0.181988  -0.228979   0.120270  -0.085463
   53  O  3  X    0.000559  -0.026266  -0.044490   0.021256   0.080409
   54  O  3  Y    0.000452   0.015307   0.017348   0.082103   0.087088
   55  O  3  Z    0.001202  -0.013745   0.094116  -0.126838   0.109930
   56  O  3  S    0.006966  -0.165081  -0.268785   0.172953  -0.126940
   57  O  3  X   -0.000424  -0.010028  -0.020940   0.007199   0.059093
   58  O  3  Y    0.000363   0.006170   0.006550   0.056985   0.057262
   59  O  3  Z    0.001370  -0.007643   0.040806  -0.062120   0.057500
   60  O  3  S    0.002459   0.082440   0.011410   0.046099  -0.033418
   61  O  3  X   -0.001701  -0.013213  -0.003242   0.007732  -0.005558
   62  O  3  Y   -0.000866  -0.001177  -0.002777   0.005100   0.002107
   63  O  3  Z   -0.000094   0.022188   0.009265   0.005630  -0.001701
   64  O  3 XX   -0.000281   0.005055   0.001813   0.000419  -0.007993
   65  O  3 YY   -0.000166   0.002212  -0.000399   0.004065   0.001943
   66  O  3 ZZ    0.000090  -0.002873   0.008814  -0.012916   0.011969
   67  O  3 XY   -0.000039  -0.002445  -0.001458  -0.003762  -0.002275
   68  O  3 XZ    0.000018  -0.002416  -0.005443   0.003811   0.006037
   69  O  3 YZ    0.000034   0.001689   0.002380   0.007358   0.009513
   70  O  4  S   -0.001290   0.037435   0.046864  -0.024940   0.017521
   71  O  4  S   -0.002108   0.060897   0.077090  -0.041404   0.029101
   72  O  4  X    0.000395  -0.018084  -0.031718   0.015038   0.052970
   73  O  4  Y    0.000564   0.008916   0.025004   0.036334   0.071570
   74  O  4  Z   -0.000726   0.009338  -0.062498   0.096085  -0.062423
   75  O  4  S    0.006004  -0.182035  -0.229048   0.120371  -0.084882
   76  O  4  X    0.000552  -0.026196  -0.045025   0.022063   0.080289
   77  O  4  Y    0.000677   0.012287   0.035578   0.055508   0.106976
   78  O  4  Z   -0.001083   0.016656  -0.088630   0.140539  -0.090712
   79  O  4  S    0.007118  -0.165208  -0.268865   0.173225  -0.125982
   80  O  4  X   -0.000471  -0.009976  -0.021170   0.007599   0.059073
   81  O  4  Y    0.000646   0.004534   0.014474   0.043665   0.067478
   82  O  4  Z   -0.001312   0.008798  -0.038612   0.072151  -0.045250
   83  O  4  S    0.002309   0.082510   0.011210   0.045764  -0.034122
   84  O  4  X   -0.001619  -0.013331  -0.003291   0.007743  -0.005443
   85  O  4  Y   -0.000889   0.003202  -0.000911   0.006096   0.001686
   86  O  4  Z   -0.000052  -0.021918  -0.009593  -0.004486   0.002235
   87  O  4 XX   -0.000284   0.005079   0.001865   0.000375  -0.008082
   88  O  4 YY   -0.000148   0.002578   0.000752   0.005870   0.005519
   89  O  4 ZZ    0.000064  -0.003261   0.007610  -0.014689   0.008431
   90  O  4 XY   -0.000035  -0.002877  -0.002528  -0.002959  -0.001092
   91  O  4 XZ   -0.000023   0.001834   0.005090  -0.004580  -0.006286
   92  O  4 YZ   -0.000088  -0.000405  -0.004239  -0.002979  -0.010999
   93  N  5  S    0.000106  -0.041205  -0.063570   0.012075  -0.004607
   94  N  5  S    0.000148  -0.065449  -0.102327   0.019417  -0.007467
   95  N  5  X    0.003869  -0.114427  -0.011510  -0.067421   0.175103
   96  N  5  Y    0.000258   0.063931   0.009030   0.148934   0.082592
   97  N  5  Z    0.000004   0.006690   0.000930   0.015010   0.007513
   98  N  5  S    0.000130   0.193689   0.321306  -0.069674   0.026705
   99  N  5  X    0.005581  -0.170412  -0.009569  -0.100714   0.267047
  100  N  5  Y   -0.000343   0.095820   0.009207   0.228671   0.130071
  101  N  5  Z   -0.000053   0.010020   0.000945   0.023042   0.011861
  102  N  5  S    0.002225   0.173773   0.315079  -0.070093   0.041341
  103  N  5  X    0.002135  -0.089033  -0.008284  -0.087125   0.202141
  104  N  5  Y    0.005295   0.048847   0.010038   0.171478   0.089109
  105  N  5  Z    0.000358   0.005196   0.001014   0.017261   0.008003
  106  N  5  S   -0.017809  -0.250945  -0.058077  -0.015244   0.021711
  107  N  5  X    0.005262   0.015957  -0.013105  -0.044759   0.025575
  108  N  5  Y   -0.000629   0.008436   0.014354  -0.000911  -0.010746
  109  N  5  Z   -0.000074   0.000733   0.001614   0.000249  -0.000708
  110  N  5 XX   -0.000592   0.007984  -0.000789  -0.003063   0.007373
  111  N  5 YY   -0.000187   0.001947  -0.000440  -0.002020  -0.003894
  112  N  5 ZZ    0.000750  -0.009033   0.001165   0.001321  -0.002162
  113  N  5 XY   -0.000372  -0.004678   0.000410   0.003895  -0.001381
  114  N  5 XZ   -0.000039  -0.000531   0.000044   0.000405  -0.000147
  115  N  5 YZ   -0.000104   0.001295  -0.000186  -0.000383  -0.000183
  116  C  6  S   -0.002063  -0.085656   0.053148   0.008085  -0.015038
  117  C  6  S   -0.003136  -0.133147   0.083458   0.012704  -0.023934
  118  C  6  X   -0.005681   0.044333   0.073112   0.101014  -0.030802
  119  C  6  Y    0.004562  -0.013373  -0.038883   0.028966   0.102432
  120  C  6  Z    0.000528  -0.001519  -0.004065   0.002516   0.010157
  121  C  6  S    0.008507   0.356401  -0.226049  -0.033772   0.062368
  122  C  6  X   -0.008431   0.067718   0.108221   0.151531  -0.042246
  123  C  6  Y    0.006690  -0.029742  -0.049178   0.048120   0.151059
  124  C  6  Z    0.000793  -0.003227  -0.005198   0.004235   0.014965
  125  C  6  S    0.003819   0.172854  -0.194013  -0.098230   0.092064
  126  C  6  X   -0.011761   0.013352   0.027696   0.051287  -0.001003
  127  C  6  Y    0.008137   0.006163  -0.020014   0.038781   0.073320
  128  C  6  Z    0.001129   0.000520  -0.002053   0.003744   0.007196
  129  C  6  S    0.002434   0.134509  -0.072360   0.007746  -0.065496
  130  C  6  X    0.011206   0.020918   0.023131   0.028500   0.024240
  131  C  6  Y   -0.005980  -0.006876   0.013135  -0.013628   0.028154
  132  C  6  Z   -0.000527  -0.000659   0.001017  -0.001652   0.002586
  133  C  6 XX    0.003891   0.010312   0.013602   0.009197  -0.005495
  134  C  6 YY   -0.003589  -0.004963  -0.001774  -0.010375  -0.007987
  135  C  6 ZZ   -0.000114  -0.008517  -0.009639  -0.001047   0.010734
  136  C  6 XY   -0.000225  -0.010390  -0.014085  -0.010369   0.013602
  137  C  6 XZ   -0.000067  -0.001110  -0.001496  -0.001054   0.001436
  138  C  6 YZ   -0.000403   0.000446   0.000962  -0.001009  -0.002176
  139  C  7  S   -0.000403  -0.004009   0.021673   0.039072   0.005764
  140  C  7  S   -0.000595  -0.005700   0.033629   0.061279   0.008995
  141  C  7  X   -0.071289   0.031209  -0.047898  -0.057623  -0.015636
  142  C  7  Y    0.108575   0.021526  -0.034807  -0.044566  -0.001903
  143  C  7  Z    0.011999   0.001977  -0.003099  -0.004056  -0.000285
  144  C  7  S    0.001730   0.015549  -0.096488  -0.180951  -0.027214
  145  C  7  X   -0.094617   0.051737  -0.071249  -0.084573  -0.024607
  146  C  7  Y    0.143631   0.035095  -0.053562  -0.066202  -0.002721
  147  C  7  Z    0.015877   0.003218  -0.004772  -0.006012  -0.000424
  148  C  7  S   -0.000338   0.036268  -0.070471  -0.132862  -0.027393
  149  C  7  X    0.003285   0.007391  -0.023200  -0.027364   0.000340
  150  C  7  Y   -0.005754   0.013060  -0.021460  -0.036267   0.001112
  151  C  7  Z   -0.000685   0.001274  -0.001941  -0.003501  -0.000084
  152  C  7  S    0.008716  -0.019784   0.073108  -0.015355   0.050982
  153  C  7  X   -0.014539  -0.006701   0.005967  -0.021984   0.000016
  154  C  7  Y    0.024636   0.003267   0.008157   0.001523   0.012873
  155  C  7  Z    0.002632   0.000296   0.000795   0.000343   0.001214
  156  C  7 XX    0.020248   0.007173   0.000692  -0.001932  -0.008814
  157  C  7 YY   -0.018797  -0.001065  -0.006700  -0.005436   0.007152
  158  C  7 ZZ   -0.000273   0.000666   0.001217   0.002710   0.000471
  159  C  7 XY   -0.009771   0.010292  -0.009612  -0.002900   0.003723
  160  C  7 XZ   -0.001225   0.001002  -0.000960  -0.000236   0.000447
  161  C  7 YZ   -0.002200  -0.000309  -0.000848  -0.000934   0.000771
  162  H  8  S    0.002680   0.055010  -0.066296  -0.000685   0.059663
  163  H  8  S    0.003865   0.067258  -0.080958   0.005380   0.075193
  164  H  8  S    0.000925  -0.012146  -0.001814  -0.002569   0.026282
  165  H  8  S   -0.001729  -0.014109  -0.004559   0.008794  -0.000523
  166  H  8  X   -0.000404   0.001853   0.002271   0.005939  -0.000717
  167  H  8  Y   -0.000908  -0.008139   0.005377   0.001082  -0.000020
  168  H  8  Z    0.000589   0.010222  -0.008635   0.000347   0.008494
  169  H  9  S    0.002744   0.054977  -0.066263  -0.000537   0.059759
  170  H  9  S    0.003786   0.067204  -0.080876   0.005528   0.075311
  171  H  9  S    0.000748  -0.012135  -0.001772  -0.002551   0.026185
  172  H  9  S   -0.001959  -0.014219  -0.004295   0.009040  -0.000475
  173  H  9  X   -0.000420   0.001776   0.002332   0.005926  -0.000768
  174  H  9  Y   -0.000775  -0.006014   0.003615   0.001121   0.001600
  175  H  9  Z   -0.000743  -0.011608   0.009490  -0.000187  -0.008337

                     16         17         18         19         20
                   -0.3774    -0.3257    -0.3071    -0.2661    -0.2497
                     A          A          A          A          A   
    1  O  1  S   -0.000073   0.033995   0.000034   0.026957   0.029431
    2  O  1  S   -0.000121   0.056126   0.000054   0.045086   0.049012
    3  O  1  X   -0.000219   0.078267   0.000615   0.057520   0.157532
    4  O  1  Y    0.000973  -0.056810  -0.004576  -0.134592  -0.044870
    5  O  1  Z   -0.009619  -0.006481   0.047251  -0.014465  -0.006418
    6  O  1  S    0.000357  -0.166143  -0.000194  -0.129401  -0.143006
    7  O  1  X   -0.000315   0.110189   0.000886   0.083539   0.225192
    8  O  1  Y    0.001425  -0.079823  -0.006697  -0.196366  -0.061393
    9  O  1  Z   -0.014047  -0.009102   0.069123  -0.021098  -0.008902
   10  O  1  S    0.000507  -0.210187  -0.000054  -0.209090  -0.229840
   11  O  1  X   -0.000176   0.063663   0.000789   0.033340   0.146068
   12  O  1  Y    0.001033  -0.051674  -0.005349  -0.132638  -0.032821
   13  O  1  Z   -0.010557  -0.005790   0.054785  -0.014025  -0.005123
   14  O  1  S    0.000418  -0.030342  -0.000022  -0.080952  -0.078144
   15  O  1  X    0.000143   0.013120  -0.000140   0.005389   0.006524
   16  O  1  Y   -0.000392  -0.005780   0.000294  -0.006635  -0.003466
   17  O  1  Z    0.003860  -0.000728  -0.002319  -0.000753  -0.000419
   18  O  1 XX   -0.000042   0.007042   0.000123   0.002730   0.016626
   19  O  1 YY   -0.000112   0.002190   0.000489   0.011480  -0.001986
   20  O  1 ZZ    0.000136  -0.001125  -0.000624  -0.001240  -0.003330
   21  O  1 XY    0.000158  -0.006498  -0.000630  -0.013078  -0.007394
   22  O  1 XZ   -0.001481  -0.000744   0.006079  -0.001395  -0.001013
   23  O  1 YZ    0.000610   0.000454  -0.002833   0.001663   0.000253
   24  O  2  S    0.000014   0.039689  -0.000218   0.014812  -0.035518
   25  O  2  S    0.000025   0.065612  -0.000364   0.024784  -0.059225
   26  O  2  X   -0.000051  -0.017235   0.000497  -0.108158   0.015494
   27  O  2  Y    0.000936   0.106096  -0.005062   0.045610  -0.183175
   28  O  2  Z   -0.008892   0.011392   0.042152   0.005868  -0.019768
   29  O  2  S   -0.000056  -0.193421   0.001061  -0.071625   0.172192
   30  O  2  X   -0.000076  -0.024582   0.000742  -0.158054   0.020719
   31  O  2  Y    0.001448   0.149533  -0.007506   0.067676  -0.261797
   32  O  2  Z   -0.013595   0.016062   0.062587   0.008686  -0.028261
   33  O  2  S   -0.000270  -0.257226   0.001488  -0.099588   0.279125
   34  O  2  X   -0.000062  -0.017915   0.000533  -0.116125   0.011156
   35  O  2  Y    0.000827   0.084691  -0.005412   0.036533  -0.161306
   36  O  2  Z   -0.008903   0.009165   0.046970   0.005015  -0.017498
   37  O  2  S   -0.000381  -0.040409   0.000514  -0.014293   0.085135
   38  O  2  X    0.000002   0.003834  -0.000047  -0.001367  -0.004308
   39  O  2  Y   -0.000135   0.006161   0.000520   0.018071  -0.012485
   40  O  2  Z   -0.000003   0.000631  -0.004018   0.001888  -0.001266
   41  O  2 XX    0.000014  -0.000705  -0.000018   0.003124   0.002946
   42  O  2 YY    0.000303   0.012330  -0.001259   0.004748  -0.021154
   43  O  2 ZZ   -0.000291  -0.001023   0.001188  -0.000683   0.003507
   44  O  2 XY   -0.000020  -0.002516   0.000174  -0.013475   0.002016
   45  O  2 XZ    0.000044  -0.000274  -0.000847  -0.001455   0.000229
   46  O  2 YZ   -0.001608   0.001676   0.006349   0.000804  -0.003094
   47  O  3  S    0.040829  -0.002846   0.010157  -0.000088  -0.000285
   48  O  3  S    0.067857  -0.004767   0.016962  -0.000158  -0.000515
   49  O  3  X   -0.084829   0.022947  -0.026364  -0.028341  -0.013796
   50  O  3  Y    0.039092   0.070510   0.007021  -0.052840   0.017011
   51  O  3  Z    0.105338  -0.017405   0.079730   0.000081  -0.009844
   52  O  3  S   -0.198386   0.013520  -0.046277   0.000587   0.001358
   53  O  3  X   -0.123594   0.034291  -0.038304  -0.041909  -0.019828
   54  O  3  Y    0.057133   0.104807   0.010542  -0.078417   0.025020
   55  O  3  Z    0.151265  -0.025445   0.114913   0.000166  -0.014646
   56  O  3  S   -0.300322   0.023552  -0.073790   0.003023   0.005504
   57  O  3  X   -0.067286   0.024602  -0.023266  -0.036154  -0.016672
   58  O  3  Y    0.030572   0.078536   0.003939  -0.062456   0.020343
   59  O  3  Z    0.072060  -0.013652   0.081618   0.000357  -0.009436
   60  O  3  S   -0.022995   0.023853   0.014872   0.030949  -0.006312
   61  O  3  X   -0.006999  -0.005820  -0.010870   0.002902   0.004748
   62  O  3  Y    0.003293  -0.001681   0.002964  -0.001198   0.001591
   63  O  3  Z    0.003666   0.002392   0.012523   0.010354  -0.002252
   64  O  3 XX    0.004818  -0.001804  -0.000563   0.001892   0.000658
   65  O  3 YY   -0.000979   0.002839  -0.001693  -0.001699   0.000416
   66  O  3 ZZ    0.009790  -0.002325   0.006581  -0.000320  -0.001553
   67  O  3 XY   -0.004500  -0.003104  -0.000230   0.001430  -0.000743
   68  O  3 XZ   -0.010463   0.003295  -0.004813  -0.003098  -0.000756
   69  O  3 YZ    0.004971   0.008855   0.002081  -0.005955   0.001478
   70  O  4  S   -0.040851  -0.002961  -0.010136  -0.000082  -0.000287
   71  O  4  S   -0.067895  -0.004960  -0.016927  -0.000147  -0.000517
   72  O  4  X    0.085234   0.023377   0.026685  -0.028433  -0.013662
   73  O  4  Y   -0.059399   0.065481  -0.022998  -0.051871   0.014791
   74  O  4  Z    0.095150   0.031496   0.076467  -0.010363   0.012849
   75  O  4  S    0.198487   0.014052   0.046178   0.000555   0.001386
   76  O  4  X    0.124160   0.034915   0.038755  -0.042046  -0.019633
   77  O  4  Y   -0.086290   0.097427  -0.033571  -0.076968   0.021720
   78  O  4  Z    0.136422   0.046368   0.110110  -0.015425   0.019064
   79  O  4  S    0.300562   0.024508   0.073590   0.002928   0.005513
   80  O  4  X    0.067467   0.024964   0.023612  -0.036240  -0.016514
   81  O  4  Y   -0.044489   0.074126  -0.020431  -0.061297   0.018164
   82  O  4  Z    0.064244   0.029350   0.079013  -0.012459   0.013068
   83  O  4  S    0.023240   0.023372  -0.015448   0.030248  -0.005554
   84  O  4  X    0.006999  -0.005718   0.011045   0.002820   0.004712
   85  O  4  Y   -0.003907  -0.001273  -0.005449   0.000801   0.001196
   86  O  4  Z    0.002853  -0.002476   0.011718  -0.010421   0.002357
   87  O  4 XX   -0.004891  -0.001843   0.000527   0.001927   0.000656
   88  O  4 YY   -0.001128   0.005606   0.000650  -0.003644   0.000834
   89  O  4 ZZ   -0.007617  -0.005107  -0.005487   0.001589  -0.001958
   90  O  4 XY    0.006523  -0.002420   0.001212   0.000827  -0.000882
   91  O  4 XZ   -0.009368  -0.003906  -0.004696   0.003319   0.000583
   92  O  4 YZ    0.006993  -0.006969   0.003798   0.005187  -0.000928
   93  N  5  S   -0.000008  -0.004974   0.000013   0.000472  -0.004212
   94  N  5  S   -0.000012  -0.008122   0.000021   0.000966  -0.006936
   95  N  5  X   -0.000692   0.012028  -0.000242  -0.025103  -0.012118
   96  N  5  Y    0.015519   0.108226   0.007296  -0.055391   0.014752
   97  N  5  Z   -0.158154   0.010390  -0.075945  -0.005446   0.001574
   98  N  5  S    0.000037   0.023407  -0.000081   0.001662   0.020975
   99  N  5  X   -0.001077   0.019825  -0.000379  -0.039503  -0.017113
  100  N  5  Y    0.024239   0.164979   0.011598  -0.084060   0.021874
  101  N  5  Z   -0.247096   0.015816  -0.120452  -0.008269   0.002346
  102  N  5  S    0.000041   0.031117   0.000001  -0.032583   0.031627
  103  N  5  X   -0.000871   0.012114  -0.000085  -0.024016  -0.027340
  104  N  5  Y    0.019734   0.135899   0.003833  -0.074752   0.025503
  105  N  5  Z   -0.200354   0.013200  -0.042676  -0.007295   0.002573
  106  N  5  S   -0.000260  -0.020564   0.000710  -0.162910   0.079352
  107  N  5  X    0.000054   0.008048   0.000103  -0.013999  -0.024776
  108  N  5  Y   -0.004898   0.030625  -0.003132  -0.018626   0.016012
  109  N  5  Z    0.048568   0.003345   0.031592  -0.001320   0.001101
  110  N  5 XX   -0.000003   0.006593  -0.000135  -0.009341  -0.002710
  111  N  5 YY   -0.000047  -0.010353  -0.002135   0.011126  -0.002902
  112  N  5 ZZ    0.000061   0.002302   0.002269   0.001560   0.004226
  113  N  5 XY    0.000030   0.009636   0.002096  -0.009733   0.003889
  114  N  5 XZ   -0.000357   0.000873  -0.020953  -0.000938   0.000456
  115  N  5 YZ    0.000358  -0.001454   0.012500   0.001128  -0.000856
[...]

                     16         17         18         19         20

                  2.000000   2.000000   2.000000   2.000000   2.000000

    1             0.002421   0.390496   0.118819   0.718218   0.498192
    2             0.002771   0.587592   0.104106   0.270439   0.850377
    3             0.656635   0.110929   0.121766   0.080429   0.034524
    4             0.655578   0.111310   0.121506   0.080772   0.034639
    5             0.432644   0.244203   0.051192   0.082870   0.028906
    6             0.156366   0.182121   0.726948   0.229925   0.133401
    7             0.012998   0.272173   0.273757   0.460581   0.354817
    8             0.040457   0.050477   0.241101   0.038532   0.031983
    9             0.040130   0.050698   0.240806   0.038235   0.033160

                     21         22         23         24         25

                  2.000000   2.000000   2.000000   2.000000   2.000000

    1             0.430702   0.036646   0.012953   0.002324   1.013183
    2             0.523909   0.012748   0.001972   0.027508   0.894689
    3             0.032724   0.782346   0.978089   0.910539   0.013500
    4             0.032998   0.792275   0.975590   0.901004   0.013796
    5             0.017531   0.170563   0.022980   0.062570   0.007440
    6             0.219179   0.158771   0.004302   0.047003   0.004005
    7             0.532755   0.010155   0.000802   0.001948   0.051917
    8             0.105415   0.018666   0.001566   0.023441   0.000760
    9             0.104787   0.017829   0.001745   0.023664   0.000711

                     26         27

                  2.000000   2.000000

    1             0.746842   0.858639
    2             1.110113   0.472453
    3             0.006940   0.054889
    4             0.006213   0.054249
    5             0.019311   0.031508
    6             0.024462   0.420708
    7             0.073170   0.096753
    8             0.006261   0.005613
    9             0.006688   0.005189

     ATOMIC SPIN POPULATION (ALPHA MINUS BETA)
       ATOM         MULL.POP.                    LOW.POP.
    1 O             0.000000                     0.000000
    2 O             0.000000                     0.000000
    3 O             0.000000                     0.000000
    4 O             0.000000                     0.000000
    5 N             0.000000                     0.000000
    6 C             0.000000                     0.000000
    7 C             0.000000                     0.000000
    8 H             0.000000                     0.000000
    9 H             0.000000                     0.000000

               ----- POPULATIONS IN EACH AO -----
                             MULLIKEN      LOWDIN
              1  O  1  S      1.08472     1.03211
              2  O  1  S      0.90254     0.93035
              3  O  1  X      0.31089     0.30683
              4  O  1  Y      0.34474     0.34452
              5  O  1  Z      0.31145     0.31223
              6  O  1  S      1.01933     0.57071
              7  O  1  X      0.64889     0.62960
              8  O  1  Y      0.70712     0.69698
              9  O  1  Z      0.64595     0.62902
             10  O  1  S      0.90331     0.40790
             11  O  1  X      0.41136     0.45812
             12  O  1  Y      0.53806     0.51669
             13  O  1  Z      0.56267     0.51365
             14  O  1  S     -0.00378     0.12139
             15  O  1  X      0.00723     0.10366
             16  O  1  Y      0.06565     0.11874
             17  O  1  Z      0.05732     0.12157
             18  O  1 XX     -0.00085     0.19680
             19  O  1 YY     -0.00865     0.19458
             20  O  1 ZZ     -0.01057     0.19423
             21  O  1 XY      0.00478     0.00698
             22  O  1 XZ      0.00245     0.00260
             23  O  1 YZ      0.00100     0.00111
             24  O  2  S      1.08472     1.03210
             25  O  2  S      0.90253     0.93035
             26  O  2  X      0.36890     0.37105
             27  O  2  Y      0.29332     0.28703
             28  O  2  Z      0.30629     0.30688
             29  O  2  S      1.01860     0.57046
             30  O  2  X      0.74585     0.73537
             31  O  2  Y      0.62207     0.60180
             32  O  2  Z      0.63709     0.61881
             33  O  2  S      0.90148     0.40570
             34  O  2  X      0.61052     0.54231
             35  O  2  Y      0.33904     0.42382
             36  O  2  Z      0.55217     0.50463
             37  O  2  S     -0.00335     0.11896
             38  O  2  X      0.06715     0.12060
             39  O  2  Y      0.00064     0.09718
             40  O  2  Z      0.05213     0.11968
             41  O  2 XX     -0.01277     0.19203
             42  O  2 YY      0.00533     0.20285
             43  O  2 ZZ     -0.01030     0.19402
             44  O  2 XY      0.00310     0.00406
             45  O  2 XZ      0.00016     0.00018
             46  O  2 YZ      0.00356     0.00389
             47  O  3  S      1.08487     1.03263
             48  O  3  S      0.90240     0.93035
             49  O  3  X      0.35188     0.35512
             50  O  3  Y      0.32239     0.32562
             51  O  3  Z      0.27126     0.26830
             52  O  3  S      1.05383     0.59784
             53  O  3  X      0.71841     0.71218
             54  O  3  Y      0.66262     0.65319
             55  O  3  Z      0.59051     0.57431
             56  O  3  S      0.94623     0.41080
             57  O  3  X      0.52110     0.49913
             58  O  3  Y      0.51784     0.48852
             59  O  3  Z      0.30318     0.39552
             60  O  3  S     -0.19226     0.10990
             61  O  3  X      0.03251     0.09670
             62  O  3  Y      0.03163     0.09220
             63  O  3  Z      0.00894     0.08206
             64  O  3 XX     -0.01044     0.20239
             65  O  3 YY     -0.01026     0.20372
             66  O  3 ZZ      0.00128     0.20835
             67  O  3 XY      0.00076     0.00104
             68  O  3 XZ      0.00515     0.00777
             69  O  3 YZ      0.00369     0.00496
             70  O  4  S      1.08487     1.03263
             71  O  4  S      0.90240     0.93035
             72  O  4  X      0.35127     0.35445
             73  O  4  Y      0.30913     0.31154
             74  O  4  Z      0.28519     0.28304
             75  O  4  S      1.05377     0.59761
             76  O  4  X      0.71740     0.71081
             77  O  4  Y      0.64092     0.63110
             78  O  4  Z      0.61329     0.59797
             79  O  4  S      0.94631     0.41065
             80  O  4  X      0.51964     0.49825
             81  O  4  Y      0.48504     0.47292
             82  O  4  Z      0.33749     0.41253
             83  O  4  S     -0.19198     0.10990
             84  O  4  X      0.03229     0.09654
             85  O  4  Y      0.02985     0.08915
             86  O  4  Z      0.01057     0.08519
             87  O  4 XX     -0.01037     0.20224
             88  O  4 YY     -0.00895     0.20395
             89  O  4 ZZ     -0.00088     0.20663
             90  O  4 XY      0.00116     0.00172
             91  O  4 XZ      0.00481     0.00716
             92  O  4 YZ      0.00442     0.00630
             93  N  5  S      1.09593     1.03833
             94  N  5  S      0.88972     0.91903
             95  N  5  X      0.25833     0.25727
             96  N  5  Y      0.23993     0.24076
             97  N  5  Z      0.24266     0.24263
             98  N  5  S      0.93382     0.49886
             99  N  5  X      0.59023     0.53481
            100  N  5  Y      0.54992     0.50579
            101  N  5  Z      0.57144     0.52160
            102  N  5  S      0.51898     0.22596
            103  N  5  X      0.30384     0.29696
            104  N  5  Y      0.36130     0.32284
            105  N  5  Z      0.14194     0.25925
            106  N  5  S      0.03946     0.07498
            107  N  5  X      0.04125     0.08611
            108  N  5  Y      0.02072     0.06072
            109  N  5  Z      0.16214     0.09705
            110  N  5 XX      0.01373     0.17526
            111  N  5 YY     -0.00637     0.14308
            112  N  5 ZZ      0.04328     0.21381
            113  N  5 XY      0.00886     0.01489
            114  N  5 XZ      0.03318     0.05471
            115  N  5 YZ      0.02839     0.04606
            116  C  6  S      1.10453     1.04538
            117  C  6  S      0.87803     0.90862
            118  C  6  X      0.17717     0.17344
            119  C  6  Y      0.21598     0.21042
            120  C  6  Z      0.24150     0.23159
            121  C  6  S      0.77742     0.40623
            122  C  6  X      0.44036     0.42485
            123  C  6  Y      0.51411     0.48567
            124  C  6  Z      0.55575     0.50798
            125  C  6  S      0.48091     0.20278
            126  C  6  X      0.13160     0.21162
            127  C  6  Y      0.28137     0.29013
            128  C  6  Z      0.34052     0.31965
            129  C  6  S      0.17204     0.05119
            130  C  6  X      0.01097     0.05685
            131  C  6  Y     -0.00204     0.04544
            132  C  6  Z      0.00102     0.04353
            133  C  6 XX      0.01539     0.15497
            134  C  6 YY     -0.00105     0.13695
            135  C  6 ZZ      0.00517     0.15080
            136  C  6 XY      0.01666     0.03188
            137  C  6 XZ      0.00395     0.00989
            138  C  6 YZ      0.01202     0.02334
            139  C  7  S      1.10486     1.04524
            140  C  7  S      0.87830     0.90753
            141  C  7  X      0.21281     0.20703
            142  C  7  Y      0.23077     0.22564
            143  C  7  Z      0.15509     0.15165
            144  C  7  S      0.79389     0.41002
            145  C  7  X      0.47972     0.45056
            146  C  7  Y      0.48379     0.46097
            147  C  7  Z      0.38646     0.35272
            148  C  7  S      0.32497     0.16961
            149  C  7  X      0.11198     0.22208
            150  C  7  Y      0.03357     0.22080
            151  C  7  Z      0.24356     0.23981
            152  C  7  S      0.05030     0.05511
            153  C  7  X      0.03563     0.06049
            154  C  7  Y      0.03546     0.05831
            155  C  7  Z      0.02684     0.03276
            156  C  7 XX      0.03071     0.18419
            157  C  7 YY      0.05121     0.21793
            158  C  7 ZZ     -0.02458     0.08526
            159  C  7 XY      0.08007     0.14586
            160  C  7 XZ      0.02260     0.04037
            161  C  7 YZ      0.03931     0.06972
            162  H  8  S      0.27344     0.26514
            163  H  8  S      0.45313     0.38764
            164  H  8  S      0.02856     0.12317
            165  H  8  S     -0.01492     0.02985
            166  H  8  X      0.00345     0.01091
            167  H  8  Y      0.00874     0.02296
            168  H  8  Z      0.01110     0.02599
            169  H  9  S      0.27351     0.26574
            170  H  9  S      0.45327     0.38828
            171  H  9  S      0.02914     0.12334
            172  H  9  S     -0.01518     0.02989
            173  H  9  X      0.00344     0.01086
            174  H  9  Y      0.00693     0.01931
            175  H  9  Z      0.01294     0.02993

          ----- MULLIKEN ATOMIC OVERLAP POPULATIONS -----
          (OFF-DIAGONAL ELEMENTS NEED TO BE MULTIPLIED BY 2)

             1           2           3           4           5

    1    8.4313162
    2   -0.1409835   8.3305615
    3   -0.0012021  -0.0108009   8.0866947
    4   -0.0011116  -0.0112109  -0.1579162   8.0894839
    5    0.0097206   0.0703392   0.2932421   0.2912619   6.5870694
    6   -0.2397981  -0.2020678  -0.0785769  -0.0804527  -0.1622633
    7    0.4564161   0.4498194  -0.0203190  -0.0189144   0.0488043
    8   -0.0040391   0.0012489  -0.0006205   0.0071260  -0.0270443
    9   -0.0046728   0.0013119   0.0070217  -0.0006295  -0.0284418

             6           7           8           9

    6    6.5733892
    7   -0.1543401   5.0445574
    8    0.3562006  -0.0075048   0.4842390
    9    0.3613074  -0.0111912  -0.0461019   0.4854554

          TOTAL MULLIKEN AND LOWDIN ATOMIC POPULATIONS
       ATOM         MULL.POP.    CHARGE          LOW.POP.     CHARGE
    1 O             8.505646   -0.505646         8.410364   -0.410364
    2 O             8.488218   -0.488218         8.383764   -0.383764
    3 O             8.117523   -0.117523         8.252602   -0.252602
    4 O             8.117637   -0.117637         8.252622   -0.252622
    5 N             7.082688   -0.082688         6.830760    0.169240
    6 C             6.373398   -0.373398         6.123210   -0.123210
    7 C             5.787328    0.212672         6.013658   -0.013658
    8 H             0.763504    0.236496         0.865671    0.134329
    9 H             0.764059    0.235941         0.867351    0.132649

          -------------------------------
          BOND ORDER AND VALENCE ANALYSIS     BOND ORDER THRESHOLD=0.050
          -------------------------------

                   BOND                       BOND                       BOND
  ATOM PAIR DIST  ORDER      ATOM PAIR DIST  ORDER      ATOM PAIR DIST  ORDER
    1   6  2.374 -0.069        1   7  1.270  1.659        2   5  2.834  0.105
    2   6  2.479 -0.148        2   7  1.259  1.756        3   4  2.237  0.167
    3   5  1.272  1.770        4   5  1.272  1.768        4   6  2.351  0.050
    5   6  1.465  0.719        6   7  1.631  0.778        6   8  1.089  0.953
    6   9  1.089  0.954

                       TOTAL       BONDED        FREE
      ATOM            VALENCE     VALENCE     VALENCE
    1 O                 1.616       1.616      -0.000
    2 O                 1.703       1.703       0.000
    3 O                 1.995       1.995       0.000
    4 O                 1.993       1.993       0.000
    5 N                 4.269       4.269      -0.000
    6 C                 3.287       3.287       0.000
    7 C                 4.106       4.106      -0.000
    8 H                 0.901       0.901      -0.000
    9 H                 0.901       0.901      -0.000

          -----------------------------------------
          ATOMIC SPIN DENSITY AT THE NUCLEUS (A.U.)
          -----------------------------------------
                            SPIN DENS    ALPHA DENS     BETA DENS
    1  O            8.0     0.0000000     147.72802     147.72802
    2  O            8.0     0.0000000     147.72335     147.72335
    3  O            8.0     0.0000000     147.94169     147.94169
    4  O            8.0     0.0000000     147.94143     147.94143
    5  N            7.0     0.0000000      97.17312      97.17312
    6  C            6.0     0.0000000      59.80064      59.80064
    7  C            6.0     0.0000000      59.84103      59.84103
    8  H            1.0     0.0000000       0.21642       0.21642
    9  H            1.0     0.0000000       0.21648       0.21648

    **** A SOLVENT MODEL IS IN USE IN THIS RUN ****
 ELECTRICAL PROPERTIES (MOMENTS, DENSITY, FIELD/GRADIENT, AND/OR POTENTIAL)
 ARE COMPUTED USING THE SOLVATED SYSTEM'S DENSITY MATRIX, BUT
 ONLY WITH AO INTEGRAL CONTRIBUTIONS FROM THE QUANTUM SOLUTE.
 THE ONE EXCEPTION IS THE DIPOLE, WHICH IS ALSO PRINTED FOR THE TOTAL SYSTEM.

          ----------------------------
          SOLUTE ELECTROSTATIC MOMENTS
          ----------------------------

 POINT   1           X           Y           Z (BOHR)    CHARGE
                 0.029698    0.020265    0.011611       -1.00 (A.U.)
         DX          DY          DZ         /D/  (DEBYE)
     3.821822    4.415075    0.395696    5.852845

          ----------------------------
          SYSTEM ELECTROSTATIC MOMENTS
          ----------------------------

 POINT   1           X           Y           Z (BOHR)    CHARGE
                 0.029698    0.020265    0.011611       -1.00 (A.U.)
         DX          DY          DZ         /D/  (DEBYE)
     3.821822    4.415075    0.395696    5.852845
 INCLUDING PCM SURFACE CHARGES, TOTAL CHARGE=   -0.038662, AND TOTAL DIPOLE IS
         DX          DY          DZ         /D/  (DEBYE)
     0.265366    0.239314    0.060749    0.362464
 ...... END OF PROPERTY EVALUATION ......
 STEP CPU TIME =     0.07 TOTAL CPU TIME =        184.9 (      3.1 MIN)
 TOTAL WALL CLOCK TIME=        186.6 SECONDS, CPU UTILIZATION IS    99.12%

             ----------------------------------------------
             -------   RESULTS OF PCM CALCULATION   -------
             ----------------------------------------------

 FREE ENERGY IN SOLVENT = <PSI| H(0)+V/2 |PSI>       =     -433.0822377799 A.U.
 INTERNAL ENERGY IN SOLVENT = <PSI| H(0) |PSI>       =     -432.9850266301 A.U.
 DELTA INTERNAL ENERGY =  <D-PSI| H(0) |D-PSI>       =        0.0000000000 A.U.
 ELECTROSTATIC INTERACTION                           =       -0.0972111499 A.U.
 PIEROTTI CAVITATION ENERGY                          =        0.0000000000 A.U.
 DISPERSION FREE ENERGY                              =        0.0000000000 A.U.
 REPULSION FREE ENERGY                               =        0.0000000000 A.U.
 TOTAL INTERACTION (DELTA + ES + CAV + DISP + REP)   =       -0.0972111499 A.U.
 TOTAL FREE ENERGY IN SOLVENT                        =     -433.0822377799 A.U.

 FREE ENERGY IN SOLVENT       =     -271763.24 KCAL/MOL
 INTERNAL ENERGY IN SOLVENT   =     -271702.24 KCAL/MOL
 DELTA INTERNAL ENERGY        =           0.00 KCAL/MOL
 ELECTROSTATIC INTERACTION    =         -61.00 KCAL/MOL
 PIEROTTI CAVITATION ENERGY   =           0.00 KCAL/MOL
 DISPERSION FREE ENERGY       =           0.00 KCAL/MOL
 REPULSION FREE ENERGY        =           0.00 KCAL/MOL
 TOTAL INTERACTION            =         -61.00 KCAL/MOL
 TOTAL FREE ENERGY IN SOLVENT =     -271763.24 KCAL/MOL

           -----  ENERGY CHANGE FROM GAS PHASE TO SOLVENT  -----
              ELEC          ELEC+CAV    ELEC+CAV+DIS+REP
           -58.829           -58.829             -58.829 KCAL/MOL

 -INTERNAL ENERGY IN SOLVENT-
    OMITS ES,CAV,DISP,REP (USES SOLVATED ORBITALS IN THE GAS PHASE HAMILTONIAN)
 -FREE ENERGY IN SOLVENT-
    INCLUDES ES+DISP+REP WHICH ARE IN THE SELF-CONSISTENT WAVEFUNCTION.
 -TOTAL FREE ENERGY IN SOLVENT-
    INCLUDES ES+DISP+REP+CAV, MEANING CAVITATION IS NOT IN THE SCF ENERGY.

 .... DONE PRINTING PCM SOLVENT SUMMARY ....
 STEP CPU TIME =     0.00 TOTAL CPU TIME =        184.9 (      3.1 MIN)
 TOTAL WALL CLOCK TIME=        186.6 SECONDS, CPU UTILIZATION IS    99.12%
               796820  WORDS OF DYNAMIC MEMORY USED
 EXECUTION OF GAMESS TERMINATED NORMALLY Tue Mar 17 11:41:23 2020
 DDI: 263640 bytes (0.3 MB / 0 MWords) used by master data server.

 ----------------------------------------
 CPU timing information for all processes
 ========================================
 0: 178.913 + 6.20 = 184.933
 1: 0.01 + 0.01 = 0.03
 ----------------------------------------
 ddikick.x: exited gracefully.
unset echo
----- accounting info -----
Files used on the master node vusals-mbp were:
-rw-r--r--@ 1 wurthel  staff         676 Mar 17 11:38 .//6-311++G2dp_anion.F05
-rw-r--r--  1 wurthel  staff  1021050752 Mar 17 11:38 .//6-311++G2dp_anion.F08
-rw-r--r--  1 wurthel  staff     4417200 Mar 17 11:41 .//6-311++G2dp_anion.F10
-rw-r--r--  1 wurthel  staff           8 Mar 17 11:41 .//6-311++G2dp_anion.F26
-rw-r--r--  1 wurthel  staff           0 Mar 17 11:38 .//6-311++G2dp_anion.F27
-rw-r--r--  1 wurthel  staff      996134 Mar 17 11:41 .//6-311++G2dp_anion.dat
-rw-r--r--@ 1 wurthel  staff         676 Mar 17 11:37 .//6-311++G2dp_anion.inp
-rw-r--r--  1 wurthel  staff      965448 Mar 17 11:41 .//6-311++G2dp_anion.log
ls: No match.
ls: No match.
ls: No match.
Tue Mar 17 11:41:26 MSK 2020
178.981u 6.128s 3:09.76 97.5%	0+0k 0+0io 0pf+0w
