----- GAMESS execution script 'rungms' -----
This job is running on host 192.168.0.12
under operating system Darwin at Mon Mar 9 21:12:47 MSK 2020
Available scratch disk space (Kbyte units) at beginning of the job is
Filesystem   1024-blocks     Used Available Capacity iused               ifree %iused  Mounted on
/dev/disk1s5   118181844 44020264  70799156    39%  990775 9223372036853785032    0%   /
GAMESS temporary binary files will be written to ./
GAMESS supplementary output files will be written to ./
Copying input file input/complex_4.inp to your run's scratch directory...
cp input/complex_4.inp .//input/complex_4.F05
unset echo
.//ddikick.x .//gamess.30Sep2018R3.x input/complex_4 -ddi 1 1 192.168.0.12 -scr ./

 Distributed Data Interface kickoff program.
 Initiating 1 compute processes on 1 nodes to run the following command:
 .//gamess.30Sep2018R3.x input/complex_4 

          ******************************************************
          *         GAMESS VERSION = 30 SEP 2018 (R3)         *
          *             FROM IOWA STATE UNIVERSITY             *
          * M.W.SCHMIDT, K.K.BALDRIDGE, J.A.BOATZ, S.T.ELBERT, *
          *   M.S.GORDON, J.H.JENSEN, S.KOSEKI, N.MATSUNAGA,   *
          *          K.A.NGUYEN, S.J.SU, T.L.WINDUS,           *
          *       TOGETHER WITH M.DUPUIS, J.A.MONTGOMERY       *
          *         J.COMPUT.CHEM.  14, 1347-1363(1993)        *
          **************** 64 BIT APPLE VERSION ****************

  SINCE 1993, STUDENTS AND POSTDOCS WORKING AT IOWA STATE UNIVERSITY
  AND ALSO IN THEIR VARIOUS JOBS AFTER LEAVING ISU HAVE MADE IMPORTANT
  CONTRIBUTIONS TO THE CODE:
     IVANA ADAMOVIC, CHRISTINE AIKENS, YURI ALEXEEV, POOJA ARORA,
     ANDREY ASADCHEV, ROB BELL, PRADIPTA BANDYOPADHYAY, JONATHAN BENTZ,
     BRETT BODE, KURT BRORSEN, CALEB CARLIN, GALINA CHABAN, WEI CHEN,
     CHEOL HO CHOI, PAUL DAY, ALBERT DEFUSCO, NUWAN DESILVA, TIM DUDLEY,
     DMITRI FEDOROV, ALEX FINDLATER, GRAHAM FLETCHER, MARK FREITAG,
     KURT GLAESEMANN, ANASTASIA GUNINA,
     DAN KEMP, GRANT MERRILL, NORIYUKI MINEZAWA, JONATHAN MULLIN,
     TAKESHI NAGATA, SEAN NEDD, HEATHER NETZLOFF, BOSILJKA NJEGIC, RYAN OLSON,
     MIKE PAK, BUU PHAM,
     SPENCER PRUITT, LUKE ROSKOP, JIM SHOEMAKER, LYUDMILA SLIPCHENKO,
     TONY SMITH, SAROM SOK LEANG, JIE SONG, TETSUYA TAKETSUGU, SIMON WEBB,
     PENG XU, SOOHAENG YOO, FEDERICO ZAHARIEV

  ADDITIONAL CODE HAS BEEN PROVIDED BY COLLABORATORS IN OTHER GROUPS:
     IOWA STATE UNIVERSITY:
          JOE IVANIC, AARON WEST, LAIMUTIS BYTAUTAS, KLAUS RUEDENBERG
     UNIVERSITY OF TOKYO: KIMIHIKO HIRAO, TAKAHITO NAKAJIMA,
          TAKAO TSUNEDA, MUNEAKI KAMIYA, SUSUMU YANAGISAWA,
          KIYOSHI YAGI, MAHITO CHIBA, SEIKEN TOKURA, NAOAKI KAWAKAMI
     UNIVERSITY OF AARHUS: FRANK JENSEN
     UNIVERSITY OF IOWA: VISVALDAS KAIRYS, HUI LI
     NATIONAL INST. OF STANDARDS AND TECHNOLOGY: WALT STEVENS, DAVID GARMER
     UNIVERSITY OF PISA: BENEDETTA MENNUCCI, JACOPO TOMASI
     UNIVERSITY OF MEMPHIS: HENRY KURTZ, PRAKASHAN KORAMBATH
     UNIVERSITY OF ALBERTA: TOBY ZENG, MARIUSZ KLOBUKOWSKI
     UNIVERSITY OF NEW ENGLAND: MARK SPACKMAN
     MIE UNIVERSITY: HIROAKI UMEDA
     NAT. INST. OF ADVANCED INDUSTRIAL SCIENCE AND TECHNOLOGY: KAZUO KITAURA
     MICHIGAN STATE UNIVERSITY:
          KAROL KOWALSKI, MARTA WLOCH, JEFFREY GOUR, JESSE LUTZ,
          WEI LI, JUN SHEN, J. EMILIANO DEUSTUA, PIOTR PIECUCH
     UNIVERSITY OF MINNESOTA:
          YINAN SHU
     UNIVERSITY OF SILESIA: MONIKA MUSIAL, STANISLAW KUCHARSKI
     FACULTES UNIVERSITAIRES NOTRE-DAME DE LA PAIX:
          OLIVIER QUINET, BENOIT CHAMPAGNE
     UNIVERSITY OF CALIFORNIA - SANTA BARBARA: BERNARD KIRTMAN
     INSTITUTE FOR MOLECULAR SCIENCE:
          KAZUYA ISHIMURA, MICHIO KATOUDA, AND SHIGERU NAGASE
     UNIVERSITY OF NOTRE DAME: ANNA POMOGAEVA, DAN CHIPMAN
     KYUSHU UNIVERSITY:
          HARUYUKI NAKANO,
          FENG LONG GU, JACEK KORCHOWIEC, MARCIN MAKOWSKI, AND YURIKO AOKI,
          HIROTOSHI MORI AND EISAKU MIYOSHI
     PENNSYLVANIA STATE UNIVERSITY:
          TZVETELIN IORDANOV, CHET SWALINA, JONATHAN SKONE,
          SHARON HAMMES-SCHIFFER
     WASEDA UNIVERSITY:
          MASATO KOBAYASHI, TOMOKO AKAMA, TSUGUKI TOUMA,
          TAKESHI YOSHIKAWA, YASUHIRO IKABATA, JUNJI SEINO,
          YUYA NAKAJIMA, HIROMI NAKAI
     NANJING UNIVERSITY: SHUHUA LI
     UNIVERSITY OF NEBRASKA:
          PEIFENG SU, DEJUN SI, NANDUN THELLAMUREGE, YALI WANG, HUI LI
     UNIVERSITY OF ZURICH: ROBERTO PEVERATI, KIM BALDRIDGE
     N. COPERNICUS UNIVERSITY AND JACKSON STATE UNIVERSITY:
          MARIA BARYSZ
     UNIVERSITY OF COPENHAGEN: Jimmy Kromann, CASPER STEINMANN
     TOKYO INSTITUTE OF TECHNOLOGY: HIROYA NAKATA
     NAGOYA UNIVERSITY: YOSHIO NISHIMOTO, STEPHAN IRLE
     MOSCOW STATE UNIVERSITY: VLADIMIR MIRONOV

 EXECUTION OF GAMESS BEGUN Mon Mar  9 21:12:47 2020

            ECHO OF THE FIRST FEW INPUT CARDS -
 INPUT CARD>!   File created by the GAMESS Input Deck Generator Plugin for Avogadro         
 INPUT CARD> $BASIS GBASIS=STO NGAUSS=3 $END                                                
 INPUT CARD> $CONTRL SCFTYP=RHF RUNTYP=OPTIMIZE MAXIT=200 $END                              
 INPUT CARD> $STATPT OPTTOL=0.0001 NSTEP=200 $END                                           
 INPUT CARD>                                                                                
 INPUT CARD> $DATA                                                                          
 INPUT CARD>Title                                                                           
 INPUT CARD>C1                                                                              
 INPUT CARD>O     8.0    -4.17660     1.04720     0.17960                                   
 INPUT CARD>H     1.0    -4.43140     1.90860    -0.17830                                   
 INPUT CARD>C     6.0    -2.92480     0.56160    -0.30970                                   
 INPUT CARD>C     6.0    -2.62470    -0.80010     0.32000                                   
 INPUT CARD>C     6.0    -1.28450    -1.32000    -0.20380                                   
 INPUT CARD>H     1.0    -5.59836     0.46929     2.22534                                   
 INPUT CARD>O     8.0    -5.04231    -0.04012     1.62006                                   
 INPUT CARD>H     1.0    -4.56940     0.49969     0.97182                                   
 INPUT CARD>H     1.0    -2.97400     0.45780    -1.39360                                   
 INPUT CARD>H     1.0    -2.13470     1.26520    -0.04750                                   
 INPUT CARD>H     1.0    -2.57560    -0.69630     1.40390                                   
 INPUT CARD>H     1.0    -3.41490    -1.50370     0.05790                                   
 INPUT CARD>H     1.0    -1.33360    -1.42380    -1.28770                                   
 INPUT CARD>H     1.0    -0.49430    -0.61640     0.05830                                   
 INPUT CARD>H     1.0    -1.07070    -2.29010     0.24480                                   
 INPUT CARD> $END                                                                           
    1000000 WORDS OF MEMORY AVAILABLE

     BASIS OPTIONS
     -------------
     GBASIS=STO          IGAUSS=       3      POLAR=NONE    
     NDFUNC=       0     NFFUNC=       0     DIFFSP=       F
     NPFUNC=       0      DIFFS=       F     BASNAM=        


     RUN TITLE
     ---------
 Title                                                                           

 THE POINT GROUP OF THE MOLECULE IS C1      
 THE ORDER OF THE PRINCIPAL AXIS IS     0

 ATOM      ATOMIC                      COORDINATES (BOHR)
           CHARGE         X                   Y                   Z
 O           8.0    -7.8926295603        1.9789210543        0.3393947874
 H           1.0    -8.3741317420        3.6067310202       -0.3369381436
 C           6.0    -5.5270705689        1.0612701147       -0.5852481384
 C           6.0    -4.9599638000       -1.5119697628        0.6047123161
 C           6.0    -2.4273530312       -2.4944383038       -0.3851261563
 H           1.0   -10.5793663806        0.8868295088        4.2052828295
 O           8.0    -9.5285842451       -0.0758158066        3.0614694837
 H           1.0    -8.6349139283        0.9442771788        1.8364735094
 H           1.0    -5.6200450875        0.8651165572       -2.6335221365
 H           1.0    -4.0339980660        2.3908813197       -0.0897619844
 H           1.0    -4.8671782540       -1.3158162053        2.6529863142
 H           1.0    -6.4532252755       -2.8415809677        0.1094151347
 H           1.0    -2.5201385772       -2.6905918613       -2.4334001544
 H           1.0    -0.9340915557       -1.1648270988        0.1101710251
 H           1.0    -2.0233296151       -4.3276614845        0.4626049218

          INTERNUCLEAR DISTANCES (ANGS.)
          ------------------------------

                1 O          2 H          3 C          4 C          5 C     

   1 O       0.0000000    0.9669671 *  1.4290644 *  2.4167381 *  3.7569767  
   2 H       0.9669671 *  0.0000000    2.0252206 *  3.2938615    4.5086015  
   3 C       1.4290644 *  2.0252206 *  0.0000000    1.5299703 *  2.4984430 *
   4 C       2.4167381 *  3.2938615    1.5299703 *  0.0000000    1.5299668 *
   5 C       3.7569767    4.5086015    2.4984430 *  1.5299668 *  0.0000000  
   6 H       2.5574271 *  3.0349455    3.6854948    3.7529089    5.2641873  
   7 O       2.0016602 *  2.7211798 *  2.9274373 *  2.8482563 *  4.3687177  
   8 H       1.0400344 *  1.8239647 *  2.0858657 *  2.4282054 *  3.9349615  
   9 H       2.0660584 *  2.3886794 *  1.0899699 *  2.1542395 *  2.7259140 *
  10 H       2.0660237 *  2.3887032 *  1.0899816 *  2.1542099 *  2.7258996 *
  11 H       2.6649397 *  3.5683126    2.1542233 *  1.0899653 *  2.1542145 *
  12 H       2.6649744 *  3.5683125    2.1542497 *  1.0900300 *  2.1542601 *
  13 H       4.0424571    4.6831638    2.7258420 *  2.1542145 *  1.0899653 *
  14 H       4.0424760    4.6831999    2.7258830 *  2.1542601 *  1.0900300 *
  15 H       4.5594339    5.3946640    3.4463531    2.1542217 *  1.0899754 *

                6 H          7 O          8 H          9 H         10 H     

   1 O       2.5574271 *  2.0016602 *  1.0400344 *  2.0660584 *  2.0660237 *
   2 H       3.0349455    2.7211798 *  1.8239647 *  2.3886794 *  2.3887032 *
   3 C       3.6854948    2.9274373 *  2.0858657 *  1.0899699 *  1.0899816 *
   4 C       3.7529089    2.8482563 *  2.4282054 *  2.1542395 *  2.1542099 *
   5 C       5.2641873    4.3687177    3.9349615    2.7259140 *  2.7258996 *
   6 H       0.0000000    0.9669819 *  1.6220343 *  4.4703606    4.2185560  
   7 O       0.9669819 *  0.0000000    0.9670852 *  3.6888992    3.5970561  
   8 H       1.6220343 *  0.9670852 *  0.0000000    2.8534659 *  2.7482327 *
   9 H       4.4703606    3.6888992    2.8534659 *  0.0000000    1.7799732 *
  10 H       4.2185560    3.5970561    2.7482327 *  1.7799732 *  0.0000000  
  11 H       3.3422211    2.5616314 *  2.3648094 *  3.0523230    2.4796042 *
  12 H       3.6548575    2.6890284 *  2.4863008 *  2.4796627 *  3.0523480  
  13 H       5.8406693    4.9116360    4.3904039    2.4985087 *  3.0676666  
  14 H       5.6503286    4.8430969    4.3228018    3.0677078    2.4985044 *
  15 H       5.6600775    4.7673301    4.5334742    3.7226147    3.7225923  

               11 H         12 H         13 H         14 H         15 H     

   1 O       2.6649397 *  2.6649744 *  4.0424571    4.0424760    4.5594339  
   2 H       3.5683126    3.5683125    4.6831638    4.6831999    5.3946640  
   3 C       2.1542233 *  2.1542497 *  2.7258420 *  2.7258830 *  3.4463531  
   4 C       1.0899653 *  1.0900300 *  2.1542145 *  2.1542601 *  2.1542217 *
   5 C       2.1542145 *  2.1542601 *  1.0899653 *  1.0900300 *  1.0899754 *
   6 H       3.3422211    3.6548575    5.8406693    5.6503286    5.6600775  
   7 O       2.5616314 *  2.6890284 *  4.9116360    4.8430969    4.7673301  
   8 H       2.3648094 *  2.4863008 *  4.3904039    4.3228018    4.5334742  
   9 H       3.0523230    2.4796627 *  2.4985087 *  3.0677078    3.7226147  
  10 H       2.4796042 *  3.0523480    3.0676666    2.4985044 *  3.7225923  
  11 H       0.0000000    1.7798975 *  3.0522993    2.4796841 *  2.4796039 *
  12 H       1.7798975 *  0.0000000    2.4796841 *  3.0524098    2.4796432 *
  13 H       3.0522993    2.4796841 *  0.0000000    1.7798975 *  1.7799293 *
  14 H       2.4796841 *  3.0524098    1.7798975 *  0.0000000    1.7799694 *
  15 H       2.4796039 *  2.4796432 *  1.7799293 *  1.7799694 *  0.0000000  

  * ... LESS THAN  3.000


     ATOMIC BASIS SET
     ----------------
 THE CONTRACTED PRIMITIVE FUNCTIONS HAVE BEEN UNNORMALIZED
 THE CONTRACTED BASIS FUNCTIONS ARE NOW NORMALIZED TO UNITY

  SHELL TYPE  PRIMITIVE        EXPONENT          CONTRACTION COEFFICIENT(S)

 O         

      1   S       1           130.7093214    0.154328967295
      1   S       2            23.8088661    0.535328142282
      1   S       3             6.4436083    0.444634542185

      2   L       4             5.0331513   -0.099967229187    0.155916274999
      2   L       5             1.1695961    0.399512826089    0.607683718598
      2   L       6             0.3803890    0.700115468880    0.391957393099

 H         

      3   S       7             3.4252509    0.154328967295
      3   S       8             0.6239137    0.535328142282
      3   S       9             0.1688554    0.444634542185

 C         

      4   S      10            71.6168373    0.154328967295
      4   S      11            13.0450963    0.535328142282
      4   S      12             3.5305122    0.444634542185

      5   L      13             2.9412494   -0.099967229187    0.155916274999
      5   L      14             0.6834831    0.399512826089    0.607683718598
      5   L      15             0.2222899    0.700115468880    0.391957393099

 C         

      6   S      16            71.6168373    0.154328967295
      6   S      17            13.0450963    0.535328142282
      6   S      18             3.5305122    0.444634542185

      7   L      19             2.9412494   -0.099967229187    0.155916274999
      7   L      20             0.6834831    0.399512826089    0.607683718598
      7   L      21             0.2222899    0.700115468880    0.391957393099

 C         

      8   S      22            71.6168373    0.154328967295
      8   S      23            13.0450963    0.535328142282
      8   S      24             3.5305122    0.444634542185

      9   L      25             2.9412494   -0.099967229187    0.155916274999
      9   L      26             0.6834831    0.399512826089    0.607683718598
      9   L      27             0.2222899    0.700115468880    0.391957393099

 H         

     10   S      28             3.4252509    0.154328967295
     10   S      29             0.6239137    0.535328142282
     10   S      30             0.1688554    0.444634542185

 O         

     11   S      31           130.7093214    0.154328967295
     11   S      32            23.8088661    0.535328142282
     11   S      33             6.4436083    0.444634542185

     12   L      34             5.0331513   -0.099967229187    0.155916274999
     12   L      35             1.1695961    0.399512826089    0.607683718598
     12   L      36             0.3803890    0.700115468880    0.391957393099

 H         

     13   S      37             3.4252509    0.154328967295
     13   S      38             0.6239137    0.535328142282
     13   S      39             0.1688554    0.444634542185

 H         

     14   S      40             3.4252509    0.154328967295
     14   S      41             0.6239137    0.535328142282
     14   S      42             0.1688554    0.444634542185

 H         

     15   S      43             3.4252509    0.154328967295
     15   S      44             0.6239137    0.535328142282
     15   S      45             0.1688554    0.444634542185

 H         

     16   S      46             3.4252509    0.154328967295
     16   S      47             0.6239137    0.535328142282
     16   S      48             0.1688554    0.444634542185

 H         

     17   S      49             3.4252509    0.154328967295
     17   S      50             0.6239137    0.535328142282
     17   S      51             0.1688554    0.444634542185

 H         

     18   S      52             3.4252509    0.154328967295
     18   S      53             0.6239137    0.535328142282
     18   S      54             0.1688554    0.444634542185

 H         

     19   S      55             3.4252509    0.154328967295
     19   S      56             0.6239137    0.535328142282
     19   S      57             0.1688554    0.444634542185

 H         

     20   S      58             3.4252509    0.154328967295
     20   S      59             0.6239137    0.535328142282
     20   S      60             0.1688554    0.444634542185

 TOTAL NUMBER OF BASIS SET SHELLS             =   20
 NUMBER OF CARTESIAN GAUSSIAN BASIS FUNCTIONS =   35
 NUMBER OF ELECTRONS                          =   44
 CHARGE OF MOLECULE                           =    0
 SPIN MULTIPLICITY                            =    1
 NUMBER OF OCCUPIED ORBITALS (ALPHA)          =   22
 NUMBER OF OCCUPIED ORBITALS (BETA )          =   22
 TOTAL NUMBER OF ATOMS                        =   15
 THE NUCLEAR REPULSION ENERGY IS      203.5761835244

     $CONTRL OPTIONS
     ---------------
 SCFTYP=RHF          RUNTYP=OPTIMIZE     EXETYP=RUN     
 MPLEVL=       0     CITYP =NONE         CCTYP =NONE         VBTYP =NONE    
 DFTTYP=NONE         TDDFT =NONE    
 MULT  =       1     ICHARG=       0     NZVAR =       0     COORD =UNIQUE  
 PP    =NONE         RELWFN=NONE         LOCAL =NONE         NUMGRD=       F
 ISPHER=      -1     NOSYM =       0     MAXIT =     200     UNITS =ANGS    
 PLTORB=       F     MOLPLT=       F     AIMPAC=       F     FRIEND=        
 NPRINT=       7     IREST =       0     GEOM  =INPUT   
 NORMF =       0     NORMP =       0     ITOL  =      20     ICUT  =       9
 INTTYP=BEST         GRDTYP=BEST         QMTTOL= 1.0E-06

     $SYSTEM OPTIONS
     ---------------
  REPLICATED MEMORY=     1000000 WORDS (ON EVERY NODE).
 DISTRIBUTED MEMDDI=           0 MILLION WORDS IN AGGREGATE,
 MEMDDI DISTRIBUTED OVER   1 PROCESSORS IS           0 WORDS/PROCESSOR.
 TOTAL MEMORY REQUESTED ON EACH PROCESSOR=     1000000 WORDS.
 TIMLIM=      525600.00 MINUTES, OR     365.0 DAYS.
 PARALL= F  BALTYP=  DLB     KDIAG=    0  COREFL= F
 MXSEQ2=     300 MXSEQ3=     150  mem10=         0

          ----------------
          PROPERTIES INPUT
          ----------------

     MOMENTS            FIELD           POTENTIAL          DENSITY
 IEMOM =       1   IEFLD =       0   IEPOT =       0   IEDEN =       0
 WHERE =COMASS     WHERE =NUCLEI     WHERE =NUCLEI     WHERE =NUCLEI  
 OUTPUT=BOTH       OUTPUT=BOTH       OUTPUT=BOTH       OUTPUT=BOTH    
 IEMINT=       0   IEFINT=       0                     IEDINT=       0
                                                       MORB  =       0
          EXTRAPOLATION IN EFFECT
          SOSCF IN EFFECT
 ORBITAL PRINTING OPTION: NPREO=     1    35     2     1

     -------------------------------
     INTEGRAL TRANSFORMATION OPTIONS
     -------------------------------
     NWORD  =            0
     CUTOFF = 1.0E-09     MPTRAN =       0
     DIRTRF =       F     AOINTS =DUP     

          ----------------------
          INTEGRAL INPUT OPTIONS
          ----------------------
 NOPK  =       1 NORDER=       0 SCHWRZ=       T

     ------------------------------------------
     THE POINT GROUP IS C1 , NAXIS= 0, ORDER= 1
     ------------------------------------------

     DIMENSIONS OF THE SYMMETRY SUBSPACES ARE
 A   =   35

 ..... DONE SETTING UP THE RUN .....
 STEP CPU TIME =     0.00 TOTAL CPU TIME =          0.0 (      0.0 MIN)
 TOTAL WALL CLOCK TIME=          0.0 SECONDS, CPU UTILIZATION IS     0.00%


          -----------------------------
          STATIONARY POINT LOCATION RUN
          -----------------------------

 OBTAINING INITIAL HESSIAN, HESS=GUESS   
 CARTESIAN COORDINATE OPTIMIZATION USING BADGER'S RULE FORCE CONSTANT GUESS

          PARAMETERS CONTROLLING GEOMETRY SEARCH ARE
          METHOD =QA                  UPHESS =BFGS    
          NNEG   =         0          NFRZ   =         0
          NSTEP  =       200          IFOLOW =         1
          HESS   =GUESS               RESTAR =         F
          IHREP  =         0          HSSEND =         F
          NPRT   =         0          NPUN   =         0
          OPTTOL = 1.000E-04          RMIN   = 1.500E-03
          RMAX   = 1.000E-01          RLIM   = 7.000E-02
          DXMAX  = 3.000E-01          PURIFY =         F
          MOVIE  =         F          TRUPD  =         T
          TRMAX  = 5.000E-01          TRMIN  = 5.000E-02
          ITBMAT =         5          STPT   =         F
          STSTEP = 1.000E-02          PROJCT=          T

 BEGINNING GEOMETRY SEARCH POINT NSERCH=   0 ...

 COORDINATES OF ALL ATOMS ARE (ANGS)
   ATOM   CHARGE       X              Y              Z
 ------------------------------------------------------------
 O           8.0  -4.1766000000   1.0472000000   0.1796000000
 H           1.0  -4.4314000000   1.9086000000  -0.1783000000
 C           6.0  -2.9248000000   0.5616000000  -0.3097000000
 C           6.0  -2.6247000000  -0.8001000000   0.3200000000
 C           6.0  -1.2845000000  -1.3200000000  -0.2038000000
 H           1.0  -5.5983600000   0.4692900000   2.2253400000
 O           8.0  -5.0423100000  -0.0401200000   1.6200600000
 H           1.0  -4.5694000000   0.4996900000   0.9718200000
 H           1.0  -2.9740000000   0.4578000000  -1.3936000000
 H           1.0  -2.1347000000   1.2652000000  -0.0475000000
 H           1.0  -2.5756000000  -0.6963000000   1.4039000000
 H           1.0  -3.4149000000  -1.5037000000   0.0579000000
 H           1.0  -1.3336000000  -1.4238000000  -1.2877000000
 H           1.0  -0.4943000000  -0.6164000000   0.0583000000
 H           1.0  -1.0707000000  -2.2901000000   0.2448000000

          ********************
          1 ELECTRON INTEGRALS
          ********************
 ...... END OF ONE-ELECTRON INTEGRALS ......
 STEP CPU TIME =     0.00 TOTAL CPU TIME =          0.0 (      0.0 MIN)
 TOTAL WALL CLOCK TIME=          0.0 SECONDS, CPU UTILIZATION IS     0.00%

          -------------
          GUESS OPTIONS
          -------------
          GUESS =HUCKEL            NORB  =       0          NORDER=       0
          MIX   =       F          PRTMO =       F          PUNMO =       F
          TOLZ  = 1.0E-08          TOLE  = 1.0E-05
          SYMDEN=       F          PURIFY=       F

 INITIAL GUESS ORBITALS GENERATED BY HUCKEL   ROUTINE.
 HUCKEL GUESS REQUIRES     23880 WORDS.

 SYMMETRIES FOR INITIAL GUESS ORBITALS FOLLOW.   BOTH SET(S).
    22 ORBITALS ARE OCCUPIED (    5 CORE ORBITALS).
     6=A        7=A        8=A        9=A       10=A       11=A       12=A   
    13=A       14=A       15=A       16=A       17=A       18=A       19=A   
    20=A       21=A       22=A       23=A       24=A       25=A       26=A   
    27=A       28=A       29=A       30=A       31=A       32=A   
 ...... END OF INITIAL ORBITAL SELECTION ......
 STEP CPU TIME =     0.00 TOTAL CPU TIME =          0.0 (      0.0 MIN)
 TOTAL WALL CLOCK TIME=          0.0 SECONDS, CPU UTILIZATION IS     0.00%

                    ----------------------
                    AO INTEGRAL TECHNOLOGY
                    ----------------------
     S,P,L SHELL ROTATED AXIS INTEGRALS, REPROGRAMMED BY
        KAZUYA ISHIMURA (IMS) AND JOSE SIERRA (SYNSTAR).
     S,P,D,L SHELL ROTATED AXIS INTEGRALS PROGRAMMED BY
        KAZUYA ISHIMURA (INSTITUTE FOR MOLECULAR SCIENCE).
     S,P,D,F,G SHELL TO TOTAL QUARTET ANGULAR MOMENTUM SUM 5,
        ERIC PROGRAM BY GRAHAM FLETCHER (ELORET AND NASA ADVANCED
        SUPERCOMPUTING DIVISION, AMES RESEARCH CENTER).
     S,P,D,F,G,L SHELL GENERAL RYS QUADRATURE PROGRAMMED BY
        MICHEL DUPUIS (PACIFIC NORTHWEST NATIONAL LABORATORY).

          --------------------
          2 ELECTRON INTEGRALS
          --------------------

 THE -PK- OPTION IS OFF, THE INTEGRALS ARE NOT IN SUPERMATRIX FORM.
 STORING   15000 INTEGRALS/RECORD ON DISK, USING 12 BYTES/INTEGRAL.
 TWO ELECTRON INTEGRAL EVALUATION REQUIRES   89566 WORDS OF MEMORY.
 SCHWARZ INEQUALITY OVERHEAD:       623 INTEGRALS, T=        0.00
 II,JST,KST,LST =  1  1  1  1 NREC =         1 INTLOC =    1
 II,JST,KST,LST =  2  1  1  1 NREC =         1 INTLOC =    2
 II,JST,KST,LST =  3  1  1  1 NREC =         1 INTLOC =   34
 II,JST,KST,LST =  4  1  1  1 NREC =         1 INTLOC =  145
 II,JST,KST,LST =  5  1  1  1 NREC =         1 INTLOC =  306
 II,JST,KST,LST =  6  1  1  1 NREC =         1 INTLOC = 2004
 II,JST,KST,LST =  7  1  1  1 NREC =         1 INTLOC = 2761
 II,JST,KST,LST =  8  1  1  1 NREC =         1 INTLOC = 8781
 II,JST,KST,LST =  9  1  1  1 NREC =         1 INTLOC =10268
 II,JST,KST,LST = 10  1  1  1 NREC =         2 INTLOC = 9347
 II,JST,KST,LST = 11  1  1  1 NREC =         2 INTLOC =14140
 II,JST,KST,LST = 12  1  1  1 NREC =         3 INTLOC = 3128
 II,JST,KST,LST = 13  1  1  1 NREC =         5 INTLOC = 2379
 II,JST,KST,LST = 14  1  1  1 NREC =         5 INTLOC =12760
 II,JST,KST,LST = 15  1  1  1 NREC =         6 INTLOC = 9272
 II,JST,KST,LST = 16  1  1  1 NREC =         7 INTLOC = 7098
 II,JST,KST,LST = 17  1  1  1 NREC =         8 INTLOC = 6359
 II,JST,KST,LST = 18  1  1  1 NREC =         9 INTLOC = 7083
 II,JST,KST,LST = 19  1  1  1 NREC =        10 INTLOC = 8436
 II,JST,KST,LST = 20  1  1  1 NREC =        11 INTLOC =11319
 SCHWARZ INEQUALITY TEST SKIPPED        2852 INTEGRAL BLOCKS.
 TOTAL NUMBER OF NONZERO TWO-ELECTRON INTEGRALS =              180515
         13 INTEGRAL RECORDS WERE STORED ON DISK FILE  8.
  ...... END OF TWO-ELECTRON INTEGRALS .....
 STEP CPU TIME =     0.05 TOTAL CPU TIME =          0.1 (      0.0 MIN)
 TOTAL WALL CLOCK TIME=          0.0 SECONDS, CPU UTILIZATION IS   100.00%

          --------------------------
                 RHF SCF CALCULATION
          --------------------------

     NUCLEAR ENERGY =       203.5761835244
     MAXIT =  200     NPUNCH=    2
     EXTRAP=T  DAMP=F  SHIFT=F  RSTRCT=F  DIIS=F  DEM=F  SOSCF=T
     DENSITY MATRIX CONV=  1.00E-05
     SOSCF WILL OPTIMIZE     286 ORBITAL ROTATIONS, SOGTOL=   0.250
     MEMORY REQUIRED FOR RHF ITERS=     40209 WORDS.

 ITER EX DEM     TOTAL ENERGY        E CHANGE  DENSITY CHANGE     ORB. GRAD
   1  0  0     -265.0858859018  -265.0858859018   0.754125404   0.000000000
          ---------------START SECOND ORDER SCF---------------
   2  1  0     -265.5517179194    -0.4658320176   0.161942332   0.037638218
   3  2  0     -265.5753067260    -0.0235888066   0.082834450   0.016357368
   4  3  0     -265.5771746302    -0.0018679042   0.004427795   0.002320337
   5  4  0     -265.5772207047    -0.0000460745   0.001736463   0.000632323
   6  5  0     -265.5772268223    -0.0000061175   0.000182942   0.000060721
   7  6  0     -265.5772269122    -0.0000000900   0.000063488   0.000017234
   8  7  0     -265.5772269192    -0.0000000069   0.000008037   0.000002834
   9  8  0     -265.5772269193    -0.0000000002   0.000003769   0.000000753

          -----------------
          DENSITY CONVERGED
          -----------------
     TIME TO FORM FOCK OPERATORS=       0.0 SECONDS (       0.0 SEC/ITER)
     TIME TO SOLVE SCF EQUATIONS=       0.0 SECONDS (       0.0 SEC/ITER)

 FINAL RHF ENERGY IS     -265.5772269193 AFTER   9 ITERATIONS

          ------------
          EIGENVECTORS
          ------------

                      1          2          3          4          5
                  -20.3547   -19.9881   -11.1319   -11.0573   -11.0475
                     A          A          A          A          A   
    1  O  1  S    0.993839  -0.000954   0.000415  -0.000034   0.000009
    2  O  1  S    0.028418   0.002292  -0.004251   0.000434  -0.000063
    3  O  1  X    0.000842  -0.000607  -0.002694   0.000036  -0.000064
    4  O  1  Y    0.000637  -0.000884   0.001089  -0.000073   0.000040
    5  O  1  Z   -0.000323   0.001356   0.001083   0.000058   0.000022
    6  H  2  S   -0.005511   0.000362  -0.000744  -0.000055  -0.000011
    7  C  3  S    0.000502  -0.000030   0.992141   0.002357   0.000577
    8  C  3  S   -0.004090   0.000232   0.035989  -0.005811  -0.000023
    9  C  3  X    0.003296  -0.000166   0.000383  -0.000810  -0.000203
   10  C  3  Y   -0.001268  -0.000007   0.000045   0.003873   0.000069
   11  C  3  Z   -0.001281   0.000141  -0.000247  -0.001815   0.000086
   12  C  4  S   -0.000037  -0.000023  -0.001368   0.991819   0.014931
   13  C  4  S    0.000384   0.000170  -0.005631   0.037613  -0.005180
   14  C  4  X   -0.000389  -0.000114   0.000896   0.000013  -0.003747
   15  C  4  Y    0.000305   0.000060  -0.003718   0.000161   0.001475
   16  C  4  Z    0.000058   0.000061   0.001670  -0.000108   0.001451
   17  C  5  S    0.000004  -0.000000  -0.000455  -0.013938   0.991846
   18  C  5  S    0.000022   0.000011   0.000048  -0.006303   0.037709
   19  C  5  X    0.000005  -0.000008  -0.000016   0.003762   0.000093
   20  C  5  Y   -0.000091  -0.000001  -0.000199  -0.001459   0.000009
   21  C  5  Z    0.000048   0.000003   0.000128  -0.001471  -0.000063
   22  H  6  S    0.000321  -0.005954   0.000045   0.000022  -0.000002
   23  O  7  S    0.000509   0.993908  -0.000043  -0.000024  -0.000000
   24  O  7  S    0.002216   0.027885   0.000344   0.000236   0.000016
   25  O  7  X    0.000809  -0.000073   0.000109   0.000029  -0.000010
   26  O  7  Y    0.000741   0.004108   0.000153   0.000102   0.000026
   27  O  7  Z   -0.000968  -0.000410  -0.000175  -0.000064  -0.000006
   28  H  8  S   -0.006607  -0.008351  -0.000910  -0.000560  -0.000091
   29  H  9  S    0.000367   0.000025  -0.006951   0.000037   0.000021
   30  H 10  S    0.000366   0.000025  -0.006960   0.000036   0.000021
   31  H 11  S    0.000111  -0.000052   0.000031  -0.006938  -0.000031
   32  H 12  S    0.000042  -0.000033   0.000021  -0.006946  -0.000032
   33  H 13  S   -0.000029   0.000000   0.000034   0.000138  -0.006970
   34  H 14  S   -0.000028   0.000001   0.000034   0.000138  -0.006970
   35  H 15  S   -0.000034  -0.000000  -0.000142   0.000178  -0.006942

                      6          7          8          9         10
                   -1.3890    -1.1194    -1.0337    -0.9028    -0.7950
                     A          A          A          A          A   
    1  O  1  S   -0.226072   0.039353   0.044917   0.045413  -0.023299
    2  O  1  S    0.807068  -0.161564  -0.181370  -0.192268   0.108101
    3  O  1  X    0.034045  -0.064318   0.070509   0.170868  -0.116995
    4  O  1  Y    0.019364  -0.058416  -0.068222  -0.106658  -0.109786
    5  O  1  Z   -0.013452   0.089639  -0.007057  -0.051070   0.161866
    6  H  2  S    0.121086  -0.061971  -0.077274  -0.120045  -0.053635
    7  C  3  S   -0.067427   0.041159  -0.111667  -0.150903   0.073781
    8  C  3  S    0.163844  -0.117291   0.314178   0.458959  -0.238307
    9  C  3  X   -0.069759   0.026628   0.051564   0.017064  -0.031307
   10  C  3  Y    0.029132  -0.019246  -0.078483   0.015406  -0.176223
   11  C  3  Z    0.027021  -0.003817   0.015680  -0.019225   0.130477
   12  C  4  S   -0.013249   0.010157  -0.160898   0.006102  -0.134147
   13  C  4  S    0.030065  -0.026125   0.434815  -0.017720   0.415480
   14  C  4  X   -0.005922  -0.002915   0.034293  -0.100777  -0.098144
   15  C  4  Y    0.013639  -0.009781   0.027843   0.118843  -0.027915
   16  C  4  Z   -0.004313   0.008574  -0.037642  -0.008181   0.079652
   17  C  5  S   -0.001932   0.005477  -0.122729   0.155273   0.088696
   18  C  5  S    0.004468  -0.014169   0.330888  -0.447898  -0.271768
   19  C  5  X   -0.001894   0.003482  -0.056180  -0.013791  -0.114015
   20  C  5  Y    0.001150  -0.002436   0.030573   0.017901   0.018562
   21  C  5  Z    0.000496  -0.000686   0.016739  -0.002163   0.060291
   22  H  6  S    0.010579   0.159926   0.017812   0.028421  -0.088847
   23  O  7  S   -0.034238  -0.220089  -0.020944  -0.022688   0.040110
   24  O  7  S    0.107311   0.777783   0.079279   0.090415  -0.162586
   25  O  7  X    0.011820   0.007173   0.001259  -0.005863   0.051462
   26  O  7  Y    0.026578   0.109081   0.003629  -0.002259   0.003624
   27  O  7  Z   -0.019064  -0.021424   0.003211   0.014532  -0.058847
   28  H  8  S    0.088664   0.185522  -0.009334  -0.032706   0.097774
   29  H  9  S    0.018416  -0.023201   0.076278   0.140074  -0.144388
   30  H 10  S    0.018618  -0.022724   0.076532   0.140411  -0.141237
   31  H 11  S    0.003830   0.000350   0.093518  -0.005674   0.171666
   32  H 12  S    0.003953  -0.001393   0.093188  -0.006277   0.171463
   33  H 13  S    0.000564  -0.003066   0.077300  -0.129357  -0.125911
   34  H 14  S    0.000561  -0.003056   0.077366  -0.129407  -0.125657
   35  H 15  S    0.000468  -0.002270   0.069880  -0.140561  -0.097448

                     11         12         13         14         15
                   -0.7254    -0.6553    -0.6336    -0.5648    -0.5549
                     A          A          A          A          A   
    1  O  1  S    0.020190   0.005328  -0.001989  -0.005793   0.008458
    2  O  1  S   -0.103450  -0.026134   0.012819   0.028350  -0.042731
    3  O  1  X   -0.079693   0.094600   0.466804  -0.182563  -0.139272
    4  O  1  Y    0.461095   0.211784  -0.109411  -0.177995  -0.051421
    5  O  1  Z   -0.301555   0.266915  -0.219752  -0.271733   0.040176
    6  H  2  S    0.374342   0.045365  -0.127616   0.002179  -0.030598
    7  C  3  S    0.020107  -0.002081   0.012915   0.001963  -0.010941
    8  C  3  S   -0.077637   0.001380  -0.014156  -0.004847   0.025172
    9  C  3  X    0.072662   0.263160  -0.331006  -0.113269   0.070129
   10  C  3  Y    0.013138   0.186778   0.152670  -0.166835   0.191483
   11  C  3  Z   -0.086007   0.288681   0.201301  -0.130101  -0.253372
   12  C  4  S   -0.068981  -0.002499  -0.000623  -0.001795   0.012946
   13  C  4  S    0.221193   0.008260   0.002434   0.007015  -0.048418
   14  C  4  X    0.000147   0.139649  -0.061099   0.129970   0.017903
   15  C  4  Y   -0.071440   0.125137  -0.076864   0.180245  -0.195486
   16  C  4  Z    0.031098   0.187288   0.157170   0.164537   0.173450
   17  C  5  S    0.038773   0.003756  -0.014129  -0.000333   0.002381
   18  C  5  S   -0.123009  -0.012095   0.044803   0.001576  -0.009535
   19  C  5  X   -0.098865   0.056434   0.064557   0.195240   0.000002
   20  C  5  Y    0.020002   0.084881  -0.129530   0.258220  -0.303543
   21  C  5  Z    0.045340   0.109347   0.085440   0.243137   0.303256
   22  H  6  S    0.152594  -0.010903   0.120711   0.011049  -0.105228
   23  O  7  S   -0.049165   0.005674  -0.029396  -0.002727   0.008724
   24  O  7  S    0.209517  -0.025676   0.131043   0.013304  -0.038444
   25  O  7  X   -0.098474   0.018623  -0.072054  -0.016831   0.076321
   26  O  7  Y   -0.034506   0.014502  -0.058224  -0.011543   0.024610
   27  O  7  Z    0.125263  -0.000292   0.127005   0.004793  -0.103258
   28  H  8  S   -0.220633   0.024075  -0.185583  -0.023036   0.120126
   29  H  9  S    0.025083  -0.230198  -0.183019   0.111230   0.214053
   30  H 10  S    0.000002   0.286402  -0.099290  -0.175735   0.117703
   31  H 11  S    0.090855   0.148986   0.106610   0.149560   0.110590
   32  H 12  S    0.100137  -0.159190   0.040604  -0.196766   0.043422
   33  H 13  S   -0.071831  -0.099207  -0.045282  -0.233615  -0.235244
   34  H 14  S   -0.075919   0.093318   0.002590   0.311567  -0.107055
   35  H 15  S   -0.055508  -0.018688   0.139805  -0.076656   0.335679

                     16         17         18         19         20
                   -0.4750    -0.4704    -0.4654    -0.4337    -0.3822
                     A          A          A          A          A   
    1  O  1  S   -0.023744   0.002339  -0.003568   0.007786  -0.047126
    2  O  1  S    0.122982  -0.011652   0.017117  -0.040127   0.258426
    3  O  1  X    0.069855   0.249469   0.095016   0.377868  -0.209091
    4  O  1  Y   -0.115362   0.178310  -0.118086   0.368409  -0.194781
    5  O  1  Z    0.008319   0.287742  -0.065351   0.513407   0.248552
    6  H  2  S   -0.094506  -0.023485  -0.111946   0.021521  -0.149848
    7  C  3  S    0.004175   0.008872   0.035880  -0.003249   0.010140
    8  C  3  S   -0.001179  -0.032216  -0.133399   0.012987  -0.045768
    9  C  3  X   -0.037469  -0.040132  -0.088497  -0.149195   0.089961
   10  C  3  Y   -0.020343   0.086760   0.381362  -0.161787   0.051367
   11  C  3  Z    0.042945  -0.056008  -0.203523  -0.198073  -0.087573
   12  C  4  S   -0.014068  -0.002072  -0.003132  -0.001595   0.001868
   13  C  4  S    0.061688   0.007387   0.009935   0.006723  -0.013287
   14  C  4  X    0.446598  -0.135557   0.186171   0.094409  -0.067048
   15  C  4  Y   -0.038242  -0.256210  -0.314369   0.127967  -0.092639
   16  C  4  Z   -0.250540  -0.252274   0.216707   0.142850   0.105473
   17  C  5  S   -0.019479  -0.001686  -0.005657   0.000019   0.008244
   18  C  5  S    0.081305   0.006786   0.022847  -0.000199  -0.034177
   19  C  5  X   -0.438329   0.126286  -0.185230  -0.024363   0.069344
   20  C  5  Y    0.048183   0.247641   0.279456  -0.044684   0.001168
   21  C  5  Z    0.237177   0.242151  -0.170137  -0.042745  -0.046969
   22  H  6  S    0.103911  -0.005846  -0.095373   0.025755   0.491169
   23  O  7  S    0.006848   0.001335  -0.005858   0.007179   0.077553
   24  O  7  S   -0.038865  -0.007772   0.029527  -0.037059  -0.394020
   25  O  7  X   -0.091572   0.012895   0.076617   0.036653  -0.348875
   26  O  7  Y    0.035264   0.012856  -0.010808   0.043392   0.246523
   27  O  7  Z    0.071919  -0.002164  -0.078258   0.057144   0.354523
   28  H  8  S   -0.042302   0.019363   0.067046   0.012266  -0.115004
   29  H  9  S   -0.061743   0.036691   0.111708   0.298270   0.084110
   30  H 10  S   -0.051477  -0.007201   0.069532  -0.336308   0.084724
   31  H 11  S   -0.199049  -0.260626   0.199924   0.176242   0.077972
   32  H 12  S   -0.204374   0.311499   0.027857  -0.200983   0.070981
   33  H 13  S   -0.191259  -0.273493   0.171218   0.066871   0.040544
   34  H 14  S   -0.200015   0.321205   0.018017  -0.078851   0.035862
   35  H 15  S    0.005786  -0.092591  -0.346590   0.018371  -0.025607

                     21         22         23         24         25
                   -0.2439    -0.2287     0.4862     0.6065     0.6088
                     A          A          A          A          A   
    1  O  1  S    0.055121  -0.013762  -0.129137   0.003291   0.000573
    2  O  1  S   -0.311147   0.074476   0.824770   0.000080  -0.004794
    3  O  1  X    0.133274  -0.074867   0.310047  -0.410764   0.061308
    4  O  1  Y    0.109925  -0.061627   0.256845   0.352162   0.025551
    5  O  1  Z   -0.282853   0.002901  -0.339767   0.046100   0.062956
    6  H  2  S    0.124033  -0.023274  -0.723653  -0.476922   0.021145
    7  C  3  S   -0.010606   0.004489   0.051656  -0.009734   0.001226
    8  C  3  S    0.045714  -0.019726  -0.220788   0.044837  -0.006859
    9  C  3  X   -0.093668   0.037865   0.617461  -0.396243  -0.292955
   10  C  3  Y    0.029126  -0.008350  -0.100332   0.767831  -0.320589
   11  C  3  Z    0.050608  -0.010329  -0.325740  -0.244021  -0.488980
   12  C  4  S   -0.006167   0.005159  -0.021384  -0.058690   0.001101
   13  C  4  S    0.029590  -0.022555   0.100645   0.346384  -0.006611
   14  C  4  X   -0.004802  -0.001929   0.174512  -0.277765  -0.277688
   15  C  4  Y    0.022970  -0.012849   0.058607   0.591968  -0.293988
   16  C  4  Z   -0.025110  -0.030322  -0.144148  -0.209103  -0.455484
   17  C  5  S   -0.002162  -0.001166   0.041363  -0.044157   0.001786
   18  C  5  S    0.008580   0.005677  -0.226057   0.259367  -0.010426
   19  C  5  X   -0.005344  -0.010681   0.238103  -0.088153  -0.204105
   20  C  5  Y    0.003770   0.003397  -0.014304   0.266042  -0.209523
   21  C  5  Z    0.001225   0.008305  -0.139915  -0.123965  -0.333000
   22  H  6  S    0.098459  -0.005964  -0.080054   0.015794   0.000884
   23  O  7  S    0.051964  -0.005627  -0.023562   0.004918   0.001308
   24  O  7  S   -0.274223   0.029858   0.142815  -0.030348  -0.007960
   25  O  7  X    0.243634   0.726818   0.036596  -0.004761  -0.015969
   26  O  7  Y    0.812935  -0.049296   0.137169  -0.025598  -0.008604
   27  O  7  Z   -0.143350   0.675444  -0.073643   0.012384  -0.007451
   28  H  8  S    0.216130  -0.029619  -0.127292   0.035497   0.008302
   29  H  9  S   -0.068802  -0.001929  -0.140208  -0.212713  -0.535682
   30  H 10  S   -0.029287   0.030414  -0.137924  -0.174164   0.548902
   31  H 11  S   -0.023654  -0.004450   0.137683  -0.000359   0.573611
   32  H 12  S   -0.013672   0.005450   0.136423  -0.038886  -0.573428
   33  H 13  S   -0.002945  -0.010765  -0.039653  -0.226841  -0.374246
   34  H 14  S    0.000988   0.001427  -0.039724  -0.201650   0.386890
   35  H 15  S   -0.002520   0.002590   0.144356   0.232493  -0.005751

                     26         27         28         29         30
                    0.6368     0.6631     0.7008     0.7235     0.7362
                     A          A          A          A          A   
    1  O  1  S    0.037087   0.032539  -0.000188   0.012598  -0.021075
    2  O  1  S   -0.265373  -0.205687   0.001044  -0.077680   0.127507
    3  O  1  X    0.359633  -0.185745  -0.051346  -0.028325   0.339905
    4  O  1  Y   -0.537719  -0.018265  -0.049677  -0.007573  -0.235334
    5  O  1  Z    0.085259   0.124063  -0.076317   0.018115  -0.079182
    6  H  2  S    0.687033   0.090893   0.001844   0.054474   0.191062
    7  C  3  S    0.050902  -0.151576  -0.000457  -0.158955   0.056535
    8  C  3  S   -0.269695   0.926643   0.003081   1.013517  -0.297677
    9  C  3  X    0.228775   0.082053   0.353980   0.383861   0.449311
   10  C  3  Y    0.257353   0.229748   0.340110   0.008596   0.099191
   11  C  3  Z   -0.298113  -0.182663   0.569415  -0.251113  -0.329888
   12  C  4  S   -0.003182  -0.076114   0.001712   0.118891  -0.075706
   13  C  4  S    0.000785   0.471750  -0.010828  -0.720745   0.501058
   14  C  4  X    0.235321   0.398439  -0.072051  -0.272782  -0.728546
   15  C  4  Y    0.311733  -0.354879  -0.071713  -0.077028   0.133994
   16  C  4  Z   -0.323565  -0.039198  -0.122445   0.217079   0.376623
   17  C  5  S    0.019156  -0.016659   0.001169   0.038492  -0.132979
   18  C  5  S   -0.109356   0.133108  -0.007548  -0.266661   0.843871
   19  C  5  X    0.226630   0.628336  -0.378281  -0.603386  -0.145477
   20  C  5  Y    0.336546  -0.422224  -0.350988   0.244644  -0.079310
   21  C  5  Z   -0.334587  -0.142393  -0.604755   0.233782   0.129771
   22  H  6  S    0.133620  -0.029928  -0.001503   0.106051   0.112803
   23  O  7  S    0.026627  -0.001288  -0.000361   0.014950   0.013479
   24  O  7  S   -0.169157   0.006691   0.002723  -0.096086  -0.089474
   25  O  7  X   -0.006452  -0.010783  -0.001717   0.025253   0.031145
   26  O  7  Y   -0.116241  -0.017608   0.003147  -0.061080  -0.065310
   27  O  7  Z    0.011445   0.034816  -0.003004  -0.028794  -0.030438
   28  H  8  S    0.139390   0.025652  -0.005389   0.055945   0.061806
   29  H  9  S   -0.131346  -0.563896   0.579753  -0.649900  -0.068843
   30  H 10  S   -0.130132  -0.570606  -0.581533  -0.641722  -0.079886
   31  H 11  S    0.291352  -0.144242   0.135479   0.150880  -0.511474
   32  H 12  S    0.305208  -0.147612  -0.121446   0.151822  -0.507091
   33  H 13  S   -0.255211  -0.159835  -0.644140   0.336217  -0.238067
   34  H 14  S   -0.266530  -0.154571   0.644595   0.330821  -0.228044
   35  H 15  S    0.475933  -0.495507   0.013285   0.304980  -0.433376

                     31         32         33         34         35
                    0.7490     0.7719     0.8010     0.8033     1.2908
                     A          A          A          A          A   
    1  O  1  S   -0.002803  -0.000315   0.005930   0.000203   0.065739
    2  O  1  S    0.025555   0.002193  -0.035176  -0.001010  -0.483261
    3  O  1  X   -0.108318  -0.025574  -0.014223   0.034644   0.225147
    4  O  1  Y    0.144901  -0.076840   0.187748   0.034677   0.378578
    5  O  1  Z   -0.011710   0.071488  -0.122490   0.058974  -0.498829
    6  H  2  S   -0.120457   0.077642  -0.174644   0.000706  -0.191844
    7  C  3  S   -0.071477  -0.005787  -0.003201  -0.000686   0.007097
    8  C  3  S    0.432394   0.044922   0.015308   0.004022  -0.048853
    9  C  3  X    0.007855  -0.010142  -0.064481  -0.249745   0.047217
   10  C  3  Y   -0.408964   0.023771  -0.097774  -0.239832  -0.075669
   11  C  3  Z    0.236114  -0.003258   0.094868  -0.398023   0.019976
   12  C  4  S    0.111085  -0.139134  -0.051293  -0.000549   0.003568
   13  C  4  S   -0.673464   0.884131   0.333241   0.003723  -0.012174
   14  C  4  X   -0.096018  -0.090310   0.092309   0.440701   0.060813
   15  C  4  Y   -0.378714  -0.401074  -0.262072   0.420135  -0.072468
   16  C  4  Z    0.282209   0.285248   0.113196   0.709458   0.009294
   17  C  5  S   -0.146581   0.126323   0.050723   0.000446   0.004808
   18  C  5  S    0.930623  -0.799880  -0.319637  -0.002839  -0.032951
   19  C  5  X    0.112553   0.056369   0.115924  -0.305901   0.025020
   20  C  5  Y    0.576503   0.453176   0.147036  -0.291917  -0.002787
   21  C  5  Z   -0.410868  -0.295558  -0.168766  -0.494114  -0.012569
   22  H  6  S   -0.081072  -0.400160   0.991471  -0.013823  -0.245433
   23  O  7  S   -0.012168  -0.044353   0.095823  -0.001904   0.082688
   24  O  7  S    0.080921   0.289560  -0.636887   0.011800  -0.606539
   25  O  7  X   -0.017241  -0.144370   0.426066   0.005422  -0.467468
   26  O  7  Y    0.064532   0.185731  -0.468248   0.008647  -0.329558
   27  O  7  Z    0.008266   0.169576  -0.447708   0.015343   0.597466
   28  H  8  S   -0.069911  -0.105313   0.192538  -0.001890   1.535848
   29  H  9  S    0.005800  -0.015367   0.064720  -0.323789   0.021829
   30  H 10  S    0.010918  -0.019201   0.067594   0.321603   0.017075
   31  H 11  S    0.112796  -0.577301  -0.244033  -0.636979  -0.048625
   32  H 12  S    0.106293  -0.589670  -0.226546   0.629824  -0.028491
   33  H 13  S   -0.699091   0.129495   0.008261  -0.424783   0.002305
   34  H 14  S   -0.704612   0.117525   0.016557   0.423985   0.001437
   35  H 15  S    0.185841   0.786346   0.280360   0.004144   0.007648
 ...... END OF RHF CALCULATION ......
 STEP CPU TIME =     0.02 TOTAL CPU TIME =          0.1 (      0.0 MIN)
 TOTAL WALL CLOCK TIME=          0.1 SECONDS, CPU UTILIZATION IS   100.00%

     ----------------------------------------------------------------
     PROPERTY VALUES FOR THE RHF   SELF-CONSISTENT FIELD WAVEFUNCTION
     ----------------------------------------------------------------

          -----------------
          ENERGY COMPONENTS
          -----------------

         WAVEFUNCTION NORMALIZATION =       1.0000000000

                ONE ELECTRON ENERGY =    -769.0011225047
                TWO ELECTRON ENERGY =     299.8477120610
           NUCLEAR REPULSION ENERGY =     203.5761835244
                                      ------------------
                       TOTAL ENERGY =    -265.5772269193

 ELECTRON-ELECTRON POTENTIAL ENERGY =     299.8477120610
  NUCLEUS-ELECTRON POTENTIAL ENERGY =   -1033.3791653930
   NUCLEUS-NUCLEUS POTENTIAL ENERGY =     203.5761835244
                                      ------------------
             TOTAL POTENTIAL ENERGY =    -529.9552698076
               TOTAL KINETIC ENERGY =     264.3780428883
                 VIRIAL RATIO (V/T) =       2.0045358685

          ---------------------------------------
          MULLIKEN AND LOWDIN POPULATION ANALYSES
          ---------------------------------------

     ATOMIC MULLIKEN POPULATION IN EACH MOLECULAR ORBITAL

                      1          2          3          4          5

                  2.000000   2.000000   2.000000   2.000000   2.000000

    1             2.001776   0.000013  -0.000389   0.000000  -0.000000
    2            -0.000644   0.000001  -0.000013  -0.000000  -0.000000
    3            -0.000507   0.000000   2.003124  -0.000804  -0.000001
    4             0.000004   0.000000  -0.000766   2.003119  -0.000368
    5            -0.000000   0.000000  -0.000001  -0.000377   2.003296
    6             0.000001  -0.000698   0.000000   0.000000  -0.000000
    7             0.000012   2.001661   0.000000   0.000000  -0.000000
    8            -0.000649  -0.000977  -0.000013  -0.000003  -0.000000
    9             0.000003   0.000000  -0.000971   0.000000   0.000000
   10             0.000003   0.000000  -0.000972   0.000000   0.000000
   11             0.000000  -0.000000   0.000000  -0.000970  -0.000000
   12             0.000000  -0.000000   0.000000  -0.000971  -0.000000
   13            -0.000000  -0.000000   0.000000   0.000001  -0.000977
   14            -0.000000   0.000000   0.000000   0.000001  -0.000977
   15            -0.000000  -0.000000  -0.000000   0.000002  -0.000973

                      6          7          8          9         10

                  2.000000   2.000000   2.000000   2.000000   2.000000

    1             1.508577   0.106567   0.085951   0.195127   0.168602
    2             0.131367   0.017236   0.023407   0.044422   0.010180
    3             0.196294   0.047751   0.385175   0.514947   0.321735
    4             0.009785   0.004015   0.689580   0.139300   0.471551
    5             0.000228   0.001025   0.428292   0.566108   0.255094
    6             0.002035   0.181122   0.001786   0.003382   0.027710
    7             0.046799   1.427734   0.012675   0.015082   0.066355
    8             0.092515   0.205218  -0.000263   0.002851   0.035228
    9             0.005685   0.004653   0.044332   0.102848   0.089406
   10             0.005832   0.004401   0.044555   0.103133   0.085355
   11             0.000431   0.000004   0.072529   0.000260   0.138996
   12             0.000428   0.000013   0.072076   0.000299   0.138126
   13             0.000010   0.000105   0.049550   0.096821   0.074108
   14             0.000010   0.000103   0.049613   0.096852   0.073758
   15             0.000004   0.000051   0.040740   0.118568   0.043797

                     11         12         13         14         15

                  2.000000   2.000000   2.000000   2.000000   2.000000

    1             0.871265   0.310706   0.705995   0.304795   0.054308
    2             0.369441   0.005237   0.042754  -0.000007   0.000689
    3             0.050051   0.644681   0.519466   0.156624   0.300321
    4             0.123157   0.276014   0.131210   0.249684   0.224323
    5             0.084015   0.090421   0.110973   0.545816   0.597061
    6             0.074111   0.000314   0.040060   0.000306   0.027828
    7             0.165403   0.002681   0.107334   0.001502   0.056168
    8             0.131440   0.001642   0.082124   0.001096   0.030308
    9             0.002693   0.168313   0.109712   0.031077   0.121669
   10             0.000000   0.263989   0.033807   0.079453   0.037929
   11             0.032609   0.079031   0.038483   0.065327   0.038050
   12             0.040032   0.089961   0.005633   0.115604   0.006431
   13             0.020517   0.034825   0.006901   0.155850   0.152430
   14             0.023014   0.030963   0.000021   0.275775   0.031117
   15             0.012251   0.001223   0.065527   0.017098   0.321367

                     16         17         18         19         20

                  2.000000   2.000000   2.000000   2.000000   2.000000

    1             0.048009   0.344915   0.056974   1.008951   0.297098
    2             0.019296   0.000992   0.021700   0.000784   0.039881
    3             0.005320   0.032169   0.492558   0.230868   0.043823
    4             0.725648   0.397817   0.478592   0.114040   0.057159
    5             0.701991   0.374477   0.387443   0.011118   0.017687
    6             0.024686   0.000080   0.020836   0.001516   0.506080
    7             0.045707   0.000914   0.035934   0.017352   0.956581
    8             0.005476   0.000460   0.006628   0.000278   0.019592
    9             0.009696   0.003247   0.028734   0.189102   0.014510
   10             0.006866   0.000144   0.011465   0.241265   0.014659
   11             0.103942   0.165111   0.098769   0.069278   0.013825
   12             0.109364   0.237387   0.002193   0.090487   0.011417
   13             0.092840   0.177703   0.067992   0.010117   0.003609
   14             0.101235   0.243695   0.000665   0.014083   0.002850
   15            -0.000076   0.020889   0.289517   0.000761   0.001230

                     21         22

                  2.000000   2.000000

    1             0.213720   0.017944
    2             0.026480   0.000931
    3             0.027247   0.003544
    4             0.003076   0.002557
    5             0.000138   0.000406
    6             0.016387   0.000052
    7             1.632462   1.971316
    8             0.070390   0.001452
    9             0.007710   0.000005
   10             0.001384   0.001465
   11             0.000765   0.000078
   12             0.000206   0.000045
   13             0.000020   0.000188
   14            -0.000000   0.000004
   15             0.000013   0.000011

               ----- POPULATIONS IN EACH AO -----
                             MULLIKEN      LOWDIN
              1  O  1  S      1.99698     1.99463
              2  O  1  S      1.75966     1.58284
              3  O  1  X      1.43755     1.44755
              4  O  1  Y      1.39230     1.39672
              5  O  1  Z      1.71441     1.71322
              6  H  2  S      0.75413     0.81959
              7  C  3  S      1.99233     1.98484
              8  C  3  S      1.17409     1.03870
              9  C  3  X      0.80907     0.85308
             10  C  3  Y      1.00007     1.02850
             11  C  3  Z      0.99883     1.02193
             12  C  4  S      1.99201     1.98507
             13  C  4  S      1.17573     1.02224
             14  C  4  X      0.98405     1.01471
             15  C  4  Y      0.93553     0.97657
             16  C  4  Z      1.01218     1.03560
             17  C  5  S      1.99204     1.98537
             18  C  5  S      1.18368     1.01417
             19  C  5  X      0.97218     1.00797
             20  C  5  Y      1.01746     1.04163
             21  C  5  Z      1.00985     1.03580
             22  H  6  S      0.92760     0.96149
             23  O  7  S      1.99735     1.99569
             24  O  7  S      1.79661     1.66210
             25  O  7  X      1.62913     1.64706
             26  O  7  Y      1.63932     1.65663
             27  O  7  Z      1.50127     1.52589
             28  H  8  S      0.68479     0.78789
             29  H  9  S      0.93243     0.97062
             30  H 10  S      0.93474     0.97267
             31  H 11  S      0.91652     0.95389
             32  H 12  S      0.91873     0.95577
             33  H 13  S      0.94261     0.97273
             34  H 14  S      0.94278     0.97285
             35  H 15  S      0.93200     0.96400

          ----- MULLIKEN ATOMIC OVERLAP POPULATIONS -----
          (OFF-DIAGONAL ELEMENTS NEED TO BE MULTIPLIED BY 2)

             1           2           3           4           5

    1    7.8686909
    2    0.2652329   0.5241346
    3    0.2629775  -0.0297574   4.7030870
    4   -0.0168486   0.0020703   0.3611603   4.7342509
    5    0.0002481  -0.0000302  -0.0235993   0.3606030   4.7305094
    6    0.0048894  -0.0008103   0.0000057   0.0000887  -0.0000013
    7   -0.0900244   0.0043702   0.0020078  -0.0011346   0.0000078
    8    0.0418001  -0.0069029  -0.0121057  -0.0028917   0.0000367
    9   -0.0173926  -0.0021299   0.3800902  -0.0223824  -0.0021534
   10   -0.0177098  -0.0020529   0.3797108  -0.0227476  -0.0021047
   11   -0.0005083   0.0000064  -0.0226171   0.3858379  -0.0211829
   12   -0.0004543   0.0000035  -0.0226502   0.3858350  -0.0212318
   13    0.0000041  -0.0000010  -0.0026331  -0.0220020   0.3842718
   14    0.0000040  -0.0000009  -0.0026341  -0.0219991   0.3842839
   15   -0.0000044   0.0000007   0.0013438  -0.0203430   0.3855558

             6           7           8           9          10

    6    0.7109601
    7    0.2527600   8.1298612
    8   -0.0404024   0.2664227   0.4387925
    9    0.0000026  -0.0000816   0.0006907   0.6218677
   10    0.0000060  -0.0000628   0.0004552  -0.0256740   0.6253072
   11    0.0000653  -0.0002176  -0.0006235   0.0018373  -0.0025813
   12    0.0000319  -0.0002345  -0.0004793  -0.0025901   0.0018495
   13    0.0000000  -0.0000002  -0.0000003   0.0003477  -0.0000162
   14    0.0000001  -0.0000001   0.0000002  -0.0000173   0.0003476
   15   -0.0000000   0.0000001  -0.0000006   0.0000102   0.0000089

            11          12          13          14          15

   11    0.5999241
   12   -0.0207180   0.6020684
   13    0.0018926  -0.0023629   0.6250461
   14   -0.0023652   0.0018952  -0.0214213   0.6252060
   15   -0.0022310  -0.0022324  -0.0205146  -0.0205149   0.6109208

          TOTAL MULLIKEN AND LOWDIN ATOMIC POPULATIONS
       ATOM         MULL.POP.    CHARGE          LOW.POP.     CHARGE
    1 O             8.300905   -0.300905         8.134977   -0.134977
    2 H             0.754133    0.245867         0.819587    0.180413
    3 C             5.974386    0.025614         5.927032    0.072968
    4 C             6.099497   -0.099497         6.034188   -0.034188
    5 C             6.175213   -0.175213         6.084936   -0.084936
    6 H             0.927596    0.072404         0.961490    0.038510
    7 O             8.563674   -0.563674         8.487361   -0.487361
    8 H             0.684792    0.315208         0.787889    0.212111
    9 H             0.932425    0.067575         0.970621    0.029379
   10 H             0.934736    0.065264         0.972671    0.027329
   11 H             0.916519    0.083481         0.953893    0.046107
   12 H             0.918730    0.081270         0.955774    0.044226
   13 H             0.942611    0.057389         0.972730    0.027270
   14 H             0.942784    0.057216         0.972853    0.027147
   15 H             0.931999    0.068001         0.963998    0.036002

          -------------------------------
          BOND ORDER AND VALENCE ANALYSIS     BOND ORDER THRESHOLD=0.050
          -------------------------------

                   BOND                       BOND                       BOND
  ATOM PAIR DIST  ORDER      ATOM PAIR DIST  ORDER      ATOM PAIR DIST  ORDER
    1   2  0.967  0.898        1   3  1.429  0.920        1   7  2.002  0.077
    1   8  1.040  0.246        3   4  1.530  0.989        3   9  1.090  0.967
    3  10  1.090  0.966        4   5  1.530  1.000        4  11  1.090  0.971
    4  12  1.090  0.972        5  13  1.090  0.983        5  14  1.090  0.983
    5  15  1.090  0.982        6   7  0.967  0.979        7   8  0.967  0.640

                       TOTAL       BONDED        FREE
      ATOM            VALENCE     VALENCE     VALENCE
    1 O                 2.188       2.188       0.000
    2 H                 0.940       0.940       0.000
    3 C                 3.884       3.884      -0.000
    4 C                 3.956       3.956       0.000
    5 C                 3.966       3.966       0.000
    6 H                 0.995       0.995      -0.000
    7 O                 1.727       1.727      -0.000
    8 H                 0.901       0.901       0.000
    9 H                 0.995       0.995       0.000
   10 H                 0.996       0.996       0.000
   11 H                 0.993       0.993       0.000
   12 H                 0.993       0.993       0.000
   13 H                 0.997       0.997       0.000
   14 H                 0.997       0.997      -0.000
   15 H                 0.995       0.995       0.000

          ---------------------
          ELECTROSTATIC MOMENTS
          ---------------------

 POINT   1           X           Y           Z (BOHR)    CHARGE
                -6.252065   -0.109864    0.690708        0.00 (A.U.)
         DX          DY          DZ         /D/  (DEBYE)
     2.327061    2.936236   -2.864927    4.716408
 ...... END OF PROPERTY EVALUATION ......
 STEP CPU TIME =     0.01 TOTAL CPU TIME =          0.1 (      0.0 MIN)
 TOTAL WALL CLOCK TIME=          0.1 SECONDS, CPU UTILIZATION IS   100.00%

 BEGINNING ONE ELECTRON GRADIENT...
 ..... END OF 1-ELECTRON GRADIENT ......
 STEP CPU TIME =     0.01 TOTAL CPU TIME =          0.1 (      0.0 MIN)
 TOTAL WALL CLOCK TIME=          0.1 SECONDS, CPU UTILIZATION IS   100.00%

          ----------------------
          GRADIENT OF THE ENERGY
          ----------------------
 THE COARSE/FINE SCHWARZ SCREENINGS SKIPPED         2852/        2245 BLOCKS.
 THE NUMBER OF GRADIENT INTEGRAL BLOCKS COMPUTED WAS     17018
 ...... END OF 2-ELECTRON GRADIENT ......
 STEP CPU TIME =     0.06 TOTAL CPU TIME =          0.2 (      0.0 MIN)
 TOTAL WALL CLOCK TIME=          0.2 SECONDS, CPU UTILIZATION IS   100.00%

          NSERCH=  0     ENERGY=    -265.5772269

                                 -----------------------
                                 GRADIENT (HARTREE/BOHR)
                                 -----------------------
        ATOM     ZNUC       DE/DX         DE/DY         DE/DZ
 --------------------------------------------------------------
    1  O            8.0    -0.1075954    -0.1063103     0.1732655
    2  H            1.0    -0.0027867    -0.0160571     0.0112575
    3  C            6.0     0.0029644    -0.0121028     0.0068335
    4  C            6.0     0.0003110     0.0081532    -0.0052298
    5  C            6.0    -0.0036856     0.0018233     0.0014046
    6  H            1.0     0.0049652    -0.0227776    -0.0037800
    7  O            8.0     0.0524147     0.1250886    -0.1000765
    8  H            1.0     0.0624077     0.0269486    -0.0920648
    9  H            1.0    -0.0019852    -0.0023881     0.0055767
   10  H            1.0    -0.0045740    -0.0045247     0.0022665
   11  H            1.0     0.0048640     0.0018959     0.0025549
   12  H            1.0     0.0002181    -0.0027969    -0.0049104
   13  H            1.0    -0.0048128     0.0014519    -0.0037050
   14  H            1.0    -0.0005568     0.0054654     0.0029563
   15  H            1.0    -0.0021485    -0.0038693     0.0036509

          MAXIMUM GRADIENT = 0.1732655    RMS GRADIENT = 0.0461724

 NSERCH:   0  E=     -265.5772269193  GRAD. MAX=  0.1732655  R.M.S.=  0.0461724

          FORCE CONSTANT MATRIX NOT UPDATED --- TAKING FIRST STEP
          MIN SEARCH, CORRECT HESSIAN, TRYING PURE NR STEP
               NR STEP HAS LENGTH         =   1.845589
          TRIM/QA LAMBDA FOR NON-TS MODES =  -0.48750477
          TRIM/QA STEP HAS LENGTH         =   0.300000
          RADIUS OF STEP TAKEN=   0.30000  CURRENT TRUST RADIUS=   0.30000

 BEGINNING GEOMETRY SEARCH POINT NSERCH=   1 ...

 COORDINATES OF ALL ATOMS ARE (ANGS)
   ATOM   CHARGE       X              Y              Z
 ------------------------------------------------------------
 O           8.0  -4.1352279720   1.0878125205   0.1083550329
 H           1.0  -4.4314202712   1.9337661996  -0.1924647057
 C           6.0  -2.9146164678   0.5634048914  -0.3175333134
 C           6.0  -2.6257998961  -0.8017091204   0.3218602130
 C           6.0  -1.2836419675  -1.3206522681  -0.2040850742
 H           1.0  -5.6011033846   0.4904379633   2.2264736578
 O           8.0  -5.0653964459  -0.1282509070   1.6772503320
 H           1.0  -4.6082956840   0.4985237829   1.0156730486
 H           1.0  -2.9692406236   0.4587388805  -1.4013248734
 H           1.0  -2.1275936391   1.2690170254  -0.0501936850
 H           1.0  -2.5811460413  -0.6968721470   1.4026253125
 H           1.0  -3.4167035859  -1.5008724668   0.0622154521
 H           1.0  -1.3289664842  -1.4254845383  -1.2857494173
 H           1.0  -0.4925286146  -0.6207337739   0.0558749369
 H           1.0  -1.0681889223  -2.2882660420   0.2421430832

          INTERNUCLEAR DISTANCES (ANGS.)
          ------------------------------

                1 O          2 H          3 C          4 C          5 C     

   1 O       0.0000000    0.9454417 *  1.3950902 *  2.4278076 *  3.7456460  
   2 H       0.9454417 *  0.0000000    2.0479810 *  3.3177734    4.5276796  
   3 C       1.3950902 *  2.0479810 *  0.0000000    1.5348535 *  2.4945179 *
   4 C       2.4278076 *  3.3177734    1.5348535 *  0.0000000    1.5320928 *
   5 C       3.7456460    4.5276796    2.4945179 *  1.5320928 *  0.0000000  
   6 H       2.6442529 *  3.0500193    3.7006091    3.7615990    5.2752381  
   7 O       2.1921351 *  2.8547635 *  3.0138686    2.8709336 *  4.3889533  
   8 H       1.1807965 *  1.8843573 *  2.1564318 *  2.4702776 *  3.9812729  
   9 H       2.0085800 *  2.4031267 *  1.0902032 *  2.1624171 *  2.7277938 *
  10 H       2.0220209 *  2.4020303 *  1.0903045 *  2.1620685 *  2.7280623 *
  11 H       2.6972960 *  3.5899979    2.1583434 *  1.0867557 *  2.1573448 *
  12 H       2.6869492 *  3.5904393    2.1581338 *  1.0870940 *  2.1571618 *
  13 H       4.0168760    4.7016015    2.7216556 *  2.1576101 *  1.0876773 *
  14 H       4.0238220    4.7012775    2.7217876 *  2.1573935 *  1.0878076 *
  15 H       4.5631715    5.4153269    3.4430451    2.1546132 *  1.0871136 *

                6 H          7 O          8 H          9 H         10 H     

   1 O       2.6442529 *  2.1921351 *  1.1807965 *  2.0085800 *  2.0220209 *
   2 H       3.0500193    2.8547635 *  1.8843573 *  2.4031267 *  2.4020303 *
   3 C       3.7006091    3.0138686    2.1564318 *  1.0902032 *  1.0903045 *
   4 C       3.7615990    2.8709336 *  2.4702776 *  2.1624171 *  2.1620685 *
   5 C       5.2752381    4.3889533    3.9812729    2.7277938 *  2.7280623 *
   6 H       0.0000000    0.9855983 *  1.5658131 *  4.4820340    4.2254786  
   7 O       0.9855983 *  0.0000000    1.0195451 *  3.7704180    3.6833552  
   8 H       1.5658131 *  1.0195451 *  0.0000000    2.9206101 *  2.8077775 *
   9 H       4.4820340    3.7704180    2.9206101 *  0.0000000    1.7861903 *
  10 H       4.2254786    3.6833552    2.8077775 *  1.7861903 *  0.0000000  
  11 H       3.3479208    2.5632497 *  2.3849610 *  3.0574811    2.4861844 *
  12 H       3.6634592    2.6852590 *  2.5152651 *  2.4864131 *  3.0572419  
  13 H       5.8530013    4.9419724    4.4443620    2.5008308 *  3.0699743  
  14 H       5.6607188    4.8767323    4.3718976    3.0696571    2.5011690 *
  15 H       5.6750399    4.7647525    4.5713129    3.7230392    3.7231790  

               11 H         12 H         13 H         14 H         15 H     

   1 O       2.6972960 *  2.6869492 *  4.0168760    4.0238220    4.5631715  
   2 H       3.5899979    3.5904393    4.7016015    4.7012775    5.4153269  
   3 C       2.1583434 *  2.1581338 *  2.7216556 *  2.7217876 *  3.4430451  
   4 C       1.0867557 *  1.0870940 *  2.1576101 *  2.1573935 *  2.1546132 *
   5 C       2.1573448 *  2.1571618 *  1.0876773 *  1.0878076 *  1.0871136 *
   6 H       3.3479208    3.6634592    5.8530013    5.6607188    5.6750399  
   7 O       2.5632497 *  2.6852590 *  4.9419724    4.8767323    4.7647525  
   8 H       2.3849610 *  2.5152651 *  4.4443620    4.3718976    4.5713129  
   9 H       3.0574811    2.4864131 *  2.5008308 *  3.0696571    3.7230392  
  10 H       2.4861844 *  3.0572419    3.0699743    2.5011690 *  3.7231790  
  11 H       0.0000000    1.7723633 *  3.0538809    2.4863339 *  2.4836048 *
  12 H       1.7723633 *  0.0000000    2.4862298 *  3.0537655    2.4835224 *
  13 H       3.0538809    2.4862298 *  0.0000000    1.7740372 *  1.7739370 *
  14 H       2.4863339 *  3.0537655    1.7740372 *  0.0000000    1.7739066 *
  15 H       2.4836048 *  2.4835224 *  1.7739370 *  1.7739066 *  0.0000000  

  * ... LESS THAN  3.000

 ...... END OF ONE-ELECTRON INTEGRALS ......
 STEP CPU TIME =     0.01 TOTAL CPU TIME =          0.2 (      0.0 MIN)
 TOTAL WALL CLOCK TIME=          0.2 SECONDS, CPU UTILIZATION IS   100.00%
 TOTAL NUMBER OF NONZERO TWO-ELECTRON INTEGRALS =              179991
         12 INTEGRAL RECORDS WERE STORED ON DISK FILE  8.
  ...... END OF TWO-ELECTRON INTEGRALS .....
 STEP CPU TIME =     0.03 TOTAL CPU TIME =          0.2 (      0.0 MIN)
 TOTAL WALL CLOCK TIME=          0.2 SECONDS, CPU UTILIZATION IS   100.00%

          --------------------------
                 RHF SCF CALCULATION
          --------------------------
     DENSITY MATRIX CONV=  2.00E-04

 ITER EX DEM     TOTAL ENERGY        E CHANGE  DENSITY CHANGE     ORB. GRAD
          ---------------START SECOND ORDER SCF---------------
   1  0  0     -265.6242967703  -265.6242967703   0.069762731   0.025434121
   2  1  0     -265.6297785007    -0.0054817304   0.040505360   0.010035006
   3  2  0     -265.6307232283    -0.0009447276   0.002988286   0.001595781
   4  3  0     -265.6307412952    -0.0000180669   0.001319570   0.000397331
   5  4  0     -265.6307433435    -0.0000020483   0.000125074   0.000083180
   6  5  0     -265.6307433842    -0.0000000407   0.000050253   0.000015174
   7  6  0     -265.6307433882    -0.0000000039   0.000009399   0.000003599

          -----------------
          DENSITY CONVERGED
          -----------------
     TIME TO FORM FOCK OPERATORS=       0.0 SECONDS (       0.0 SEC/ITER)
     TIME TO SOLVE SCF EQUATIONS=       0.0 SECONDS (       0.0 SEC/ITER)

 FINAL RHF ENERGY IS     -265.6307433882 AFTER   7 ITERATIONS
 ...... END OF RHF CALCULATION ......
 STEP CPU TIME =     0.01 TOTAL CPU TIME =          0.2 (      0.0 MIN)
 TOTAL WALL CLOCK TIME=          0.2 SECONDS, CPU UTILIZATION IS    95.24%
 ..... END OF 1-ELECTRON GRADIENT ......
 STEP CPU TIME =     0.02 TOTAL CPU TIME =          0.2 (      0.0 MIN)
 TOTAL WALL CLOCK TIME=          0.2 SECONDS, CPU UTILIZATION IS   100.00%
 ...... END OF 2-ELECTRON GRADIENT ......
 STEP CPU TIME =     0.06 TOTAL CPU TIME =          0.3 (      0.0 MIN)
 TOTAL WALL CLOCK TIME=          0.3 SECONDS, CPU UTILIZATION IS   100.00%

          NSERCH=  1     ENERGY=    -265.6307434

                                 -----------------------
                                 GRADIENT (HARTREE/BOHR)
                                 -----------------------
        ATOM     ZNUC       DE/DX         DE/DY         DE/DZ
 --------------------------------------------------------------
    1  O            8.0    -0.0098890    -0.0048694     0.0238194
    2  H            1.0    -0.0074080    -0.0435242     0.0294459
    3  C            6.0    -0.0166992    -0.0183750     0.0244425
    4  C            6.0     0.0009331     0.0025700    -0.0018039
    5  C            6.0    -0.0016671     0.0013329     0.0001962
    6  H            1.0     0.0033684    -0.0025530    -0.0034536
    7  O            8.0     0.0096625     0.0179082    -0.0260010
    8  H            1.0     0.0443263     0.0433678    -0.0573053
    9  H            1.0    -0.0103480     0.0011487     0.0073260
   10  H            1.0    -0.0102417    -0.0010649     0.0044129
   11  H            1.0     0.0036813     0.0014093    -0.0002489
   12  H            1.0     0.0016970    -0.0008889    -0.0034537
   13  H            1.0    -0.0037826     0.0013476    -0.0017826
   14  H            1.0    -0.0013355     0.0036972     0.0020701
   15  H            1.0    -0.0022975    -0.0015063     0.0023359

          MAXIMUM GRADIENT = 0.0573053    RMS GRADIENT = 0.0172270

 NSERCH:   1  E=     -265.6307433882  GRAD. MAX=  0.0573053  R.M.S.=  0.0172270

          HESSIAN UPDATED USING THE BFGS FORMULA
             ACTUAL ENERGY CHANGE WAS  -0.0535164689
          PREDICTED ENERGY CHANGE WAS  -0.0663091896 RATIO=  0.807
          MIN SEARCH, CORRECT HESSIAN, TRYING PURE NR STEP
               NR STEP HAS LENGTH         =   2.929608
          TRIM/QA LAMBDA FOR NON-TS MODES =  -0.09030699
          TRIM/QA STEP HAS LENGTH         =   0.424264
          RADIUS OF STEP TAKEN=   0.42426  CURRENT TRUST RADIUS=   0.42426

 BEGINNING GEOMETRY SEARCH POINT NSERCH=   2 ...

 COORDINATES OF ALL ATOMS ARE (ANGS)
   ATOM   CHARGE       X              Y              Z
 ------------------------------------------------------------
 O           8.0  -4.1528259206   1.0831420886   0.0969644272
 H           1.0  -4.3579348683   1.9880492910  -0.2535443557
 C           6.0  -2.9067501281   0.6009755372  -0.3507523698
 C           6.0  -2.6314202867  -0.7786241913   0.3104796115
 C           6.0  -1.2891196915  -1.3178862830  -0.2023138068
 H           1.0  -5.6351395829   0.4959047058   2.2640065293
 O           8.0  -5.0864881436  -0.1711601679   1.7733040452
 H           1.0  -4.6861290057   0.4115873187   1.0540591563
 H           1.0  -2.9255723424   0.4599672079  -1.4300341487
 H           1.0  -2.0951321464   1.2729224518  -0.0706528541
 H           1.0  -2.5968079763  -0.6934094109   1.3939798159
 H           1.0  -3.4215633024  -1.4870894640   0.0723060623
 H           1.0  -1.3156778998  -1.4305782383  -1.2823058773
 H           1.0  -0.4860343843  -0.6311977347   0.0491302230
 H           1.0  -1.0632743211  -2.2837431111   0.2364935419

          INTERNUCLEAR DISTANCES (ANGS.)
          ------------------------------

                1 O          2 H          3 C          4 C          5 C     

   1 O       0.0000000    0.9918584 *  1.4091273 *  2.4138015 *  3.7490423  
   2 H       0.9918584 *  0.0000000    2.0098159 *  3.3096009    4.5110377  
   3 C       1.4091273 *  2.0098159 *  0.0000000    1.5544548 *  2.5141187 *
   4 C       2.4138015 *  3.3096009    1.5544548 *  0.0000000    1.5347741 *
   5 C       3.7490423    4.5110377    2.5141187 *  1.5347741 *  0.0000000  
   6 H       2.6903853 *  3.1930878    3.7804911    3.8030279    5.3160571  
   7 O       2.2924035 *  3.0497688    3.1399151    2.9216821 *  4.4314844  
   8 H       1.2850791 *  2.0743121 *  2.2749841 *  2.4882407 *  4.0136298  
   9 H       2.0557779 *  2.4022543 *  1.0886169 *  2.1563910 *  2.7103575 *
  10 H       2.0732139 *  2.3801537 *  1.0902716 *  2.1544629 *  2.7164831 *
  11 H       2.6943600 *  3.6064005    2.1944446 *  1.0873970 *  2.1559623 *
  12 H       2.6723479 *  3.6138013    2.1918090 *  1.0876468 *  2.1567015 *
  13 H       4.0336814    4.6904895    2.7434492 *  2.1663766 *  1.0861803 *
  14 H       4.0480377    4.6844082    2.7455458 *  2.1662684 *  1.0861451 *
  15 H       4.5717298    5.4169305    3.4734511    2.1748422 *  1.0846370 *

                6 H          7 O          8 H          9 H         10 H     

   1 O       2.6903853 *  2.2924035 *  1.2850791 *  2.0557779 *  2.0732139 *
   2 H       3.1930878    3.0497688    2.0743121 *  2.4022543 *  2.3801537 *
   3 C       3.7804911    3.1399151    2.2749841 *  1.0886169 *  1.0902716 *
   4 C       3.8030279    2.9216821 *  2.4882407 *  2.1563910 *  2.1544629 *
   5 C       5.3160571    4.4314844    4.0136298    2.7103575 *  2.7164831 *
   6 H       0.0000000    0.9933695 *  1.5400335 *  4.5813734    4.3111534  
   7 O       0.9933695 *  0.0000000    1.0085610 *  3.9152592    3.7991792  
   8 H       1.5400335 *  1.0085610 *  0.0000000    3.0450977    2.9529883 *
   9 H       4.5813734    3.9152592    3.0450977    0.0000000    1.7884196 *
  10 H       4.3111534    3.7991792    2.9529883 *  1.7884196 *  0.0000000  
  11 H       3.3768141    2.5719912 *  2.3878497 *  3.0681295    2.5026563 *
  12 H       3.6926598    2.7197498 *  2.4835336 *  2.5087971 *  3.0655379  
  13 H       5.9114649    5.0141695    4.4957887    2.4875180 *  3.0634242  
  14 H       5.7174576    4.9344285    4.4427556    3.0544907    2.4958400 *
  15 H       5.7218181    4.7969827    4.5889319    3.7112551    3.7160381  

               11 H         12 H         13 H         14 H         15 H     

   1 O       2.6943600 *  2.6723479 *  4.0336814    4.0480377    4.5717298  
   2 H       3.6064005    3.6138013    4.6904895    4.6844082    5.4169305  
   3 C       2.1944446 *  2.1918090 *  2.7434492 *  2.7455458 *  3.4734511  
   4 C       1.0873970 *  1.0876468 *  2.1663766 *  2.1662684 *  2.1748422 *
   5 C       2.1559623 *  2.1567015 *  1.0861803 *  1.0861451 *  1.0846370 *
   6 H       3.3768141    3.6926598    5.9114649    5.7174576    5.7218181  
   7 O       2.5719912 *  2.7197498 *  5.0141695    4.9344285    4.7969827  
   8 H       2.3878497 *  2.4835336 *  4.4957887    4.4427556    4.5889319  
   9 H       3.0681295    2.5087971 *  2.4875180 *  3.0544907    3.7112551  
  10 H       2.5026563 *  3.0655379    3.0634242    2.4958400 *  3.7160381  
  11 H       0.0000000    1.7484195 *  3.0573219    2.5035686 *  2.4941253 *
  12 H       1.7484195 *  0.0000000    2.5045799 *  3.0578453    2.4946225 *
  13 H       3.0573219    2.5045799 *  0.0000000    1.7606929 *  1.7602129 *
  14 H       2.5035686 *  3.0578453    1.7606929 *  0.0000000    1.7604594 *
  15 H       2.4941253 *  2.4946225 *  1.7602129 *  1.7604594 *  0.0000000  

  * ... LESS THAN  3.000

 ...... END OF ONE-ELECTRON INTEGRALS ......
 STEP CPU TIME =     0.00 TOTAL CPU TIME =          0.3 (      0.0 MIN)
 TOTAL WALL CLOCK TIME=          0.3 SECONDS, CPU UTILIZATION IS    96.55%
 TOTAL NUMBER OF NONZERO TWO-ELECTRON INTEGRALS =              178973
         12 INTEGRAL RECORDS WERE STORED ON DISK FILE  8.
  ...... END OF TWO-ELECTRON INTEGRALS .....
 STEP CPU TIME =     0.03 TOTAL CPU TIME =          0.3 (      0.0 MIN)
 TOTAL WALL CLOCK TIME=          0.3 SECONDS, CPU UTILIZATION IS    96.87%

          --------------------------
                 RHF SCF CALCULATION
          --------------------------
     DENSITY MATRIX CONV=  5.00E-05

 ITER EX DEM     TOTAL ENERGY        E CHANGE  DENSITY CHANGE     ORB. GRAD
          ---------------START SECOND ORDER SCF---------------
   1  0  0     -265.6525653399  -265.6525653399   0.045945324   0.019650909
   2  1  0     -265.6574740230    -0.0049086831   0.031666649   0.008097122
   3  2  0     -265.6583666481    -0.0008926252   0.001395333   0.001078673
   4  3  0     -265.6583783409    -0.0000116928   0.000801267   0.000288712
   5  4  0     -265.6583798521    -0.0000015113   0.000157575   0.000044212
   6  5  0     -265.6583799008    -0.0000000487   0.000096013   0.000019704
   7  6  0     -265.6583799090    -0.0000000082   0.000012613   0.000004595
   8  7  0     -265.6583799093    -0.0000000003   0.000004111   0.000001489

          -----------------
          DENSITY CONVERGED
          -----------------
     TIME TO FORM FOCK OPERATORS=       0.0 SECONDS (       0.0 SEC/ITER)
     TIME TO SOLVE SCF EQUATIONS=       0.0 SECONDS (       0.0 SEC/ITER)

 FINAL RHF ENERGY IS     -265.6583799093 AFTER   8 ITERATIONS
 ...... END OF RHF CALCULATION ......
 STEP CPU TIME =     0.02 TOTAL CPU TIME =          0.3 (      0.0 MIN)
 TOTAL WALL CLOCK TIME=          0.3 SECONDS, CPU UTILIZATION IS    97.06%
 ..... END OF 1-ELECTRON GRADIENT ......
 STEP CPU TIME =     0.01 TOTAL CPU TIME =          0.3 (      0.0 MIN)
 TOTAL WALL CLOCK TIME=          0.4 SECONDS, CPU UTILIZATION IS    97.14%
 ...... END OF 2-ELECTRON GRADIENT ......
 STEP CPU TIME =     0.06 TOTAL CPU TIME =          0.4 (      0.0 MIN)
 TOTAL WALL CLOCK TIME=          0.4 SECONDS, CPU UTILIZATION IS    97.56%

          NSERCH=  2     ENERGY=    -265.6583799

                                 -----------------------
                                 GRADIENT (HARTREE/BOHR)
                                 -----------------------
        ATOM     ZNUC       DE/DX         DE/DY         DE/DZ
 --------------------------------------------------------------
    1  O            8.0    -0.0014796    -0.0479361     0.0389405
    2  H            1.0    -0.0107221     0.0096194     0.0011033
[...]
                     A          A          A          A          A   
    1  O  1  S    0.021028  -0.009912  -0.042592  -0.000853  -0.017943
    2  O  1  S   -0.143810   0.087950   0.273462   0.004592   0.106597
    3  O  1  X    0.385453  -0.205173   0.199710  -0.029107   0.095682
    4  O  1  Y   -0.481991   0.399702   0.204291  -0.046267   0.006018
    5  O  1  Z    0.002423  -0.166980  -0.146308  -0.098130  -0.017451
    6  H  2  S    0.560957  -0.486158  -0.273279   0.005273  -0.061790
    7  C  3  S    0.055926  -0.085360   0.112930  -0.000719   0.181606
    8  C  3  S   -0.300460   0.501653  -0.685570   0.005377  -1.131109
    9  C  3  X    0.302422  -0.018945  -0.013685   0.217353  -0.382650
   10  C  3  Y   -0.018017  -0.031035  -0.352568   0.274354   0.038622
   11  C  3  Z    0.011701   0.081939   0.144943   0.696773   0.094557
   12  C  4  S    0.021689  -0.009047   0.103075  -0.002331  -0.163178
   13  C  4  S   -0.149845   0.066555  -0.626233   0.014676   0.993612
   14  C  4  X    0.392488   0.018356  -0.512019  -0.041367   0.134600
   15  C  4  Y    0.141046  -0.224881   0.214934  -0.049673   0.165908
   16  C  4  Z   -0.058120   0.163014   0.079294  -0.121169  -0.111854
   17  C  5  S    0.038869  -0.007999  -0.017926  -0.001840   0.016701
   18  C  5  S   -0.229665   0.053317   0.076033   0.012174  -0.081677
   19  C  5  X    0.265779   0.043195  -0.720585  -0.199630   0.426648
   20  C  5  Y    0.221874  -0.292330   0.331445  -0.259028  -0.362585
   21  C  5  Z   -0.052797   0.205702   0.101983  -0.688168   0.019112
   22  H  6  S    0.526084   0.735774   0.224735   0.069959   0.137355
   23  O  7  S    0.071985   0.086579   0.019977   0.003040   0.003557
   24  O  7  S   -0.467819  -0.566252  -0.130687  -0.019758  -0.024032
   25  O  7  X    0.228607   0.364199   0.128535   0.049195   0.104658
   26  O  7  Y    0.246339   0.351258   0.114089   0.038247   0.070991
   27  O  7  Z    0.288151   0.279121   0.025950  -0.019186  -0.054430
   28  H  8  S    0.344304   0.331414   0.021208  -0.033512  -0.089142
   29  H  9  S    0.091341  -0.134916   0.480003   0.590156   0.634888
   30  H 10  S   -0.049064  -0.231318   0.470925  -0.606522   0.643204
   31  H 11  S    0.178836  -0.223692   0.117763   0.099295  -0.324140
   32  H 12  S    0.385752  -0.068445   0.126694  -0.114369  -0.334328
   33  H 13  S   -0.018301   0.202952   0.140053  -0.628769  -0.013184
   34  H 14  S   -0.191275   0.043786   0.130416   0.608085  -0.028586
   35  H 15  S    0.307844  -0.382165   0.323681  -0.002943  -0.306834

                     31         32
                    0.7463     0.7564
                     A          A   
    1  O  1  S   -0.020852   0.005879
    2  O  1  S    0.124069  -0.031591
    3  O  1  X    0.272181  -0.182001
    4  O  1  Y   -0.220937   0.256042
    5  O  1  Z    0.043398  -0.052493
    6  H  2  S    0.203445  -0.211141
    7  C  3  S    0.014550  -0.026617
    8  C  3  S   -0.042480   0.121843
    9  C  3  X    0.469618  -0.313424
   10  C  3  Y    0.105059  -0.473427
   11  C  3  Z   -0.219996   0.278847
   12  C  4  S   -0.041888   0.070806
   13  C  4  S    0.295297  -0.435781
   14  C  4  X   -0.702215   0.260713
   15  C  4  Y   -0.044716  -0.364516
   16  C  4  Z    0.235539   0.059405
   17  C  5  S   -0.168350  -0.108930
   18  C  5  S    1.072815   0.705367
   19  C  5  X    0.013889   0.500653
   20  C  5  Y    0.108609   0.435598
   21  C  5  Z   -0.034659  -0.317520
   22  H  6  S    0.197282  -0.033030
   23  O  7  S   -0.001124   0.000398
   24  O  7  S    0.006612  -0.002336
   25  O  7  X    0.168762  -0.029661
   26  O  7  Y    0.107127  -0.017195
   27  O  7  Z   -0.129729   0.022519
   28  H  8  S   -0.207030   0.036507
   29  H  9  S   -0.191730   0.260982
   30  H 10  S   -0.137009   0.253256
   31  H 11  S   -0.397851   0.168229
   32  H 12  S   -0.402073   0.170111
   33  H 13  S   -0.469855  -0.677830
   34  H 14  S   -0.487399  -0.681961
   35  H 15  S   -0.341970   0.096961

     ----------------------------------------------------------------
     PROPERTY VALUES FOR THE RHF   SELF-CONSISTENT FIELD WAVEFUNCTION
     ----------------------------------------------------------------

          -----------------
          ENERGY COMPONENTS
          -----------------

         WAVEFUNCTION NORMALIZATION =       1.0000000000

                ONE ELECTRON ENERGY =    -737.9427464163
                TWO ELECTRON ENERGY =     284.2026927269
           NUCLEAR REPULSION ENERGY =     188.0524670565
                                      ------------------
                       TOTAL ENERGY =    -265.6875866329

 ELECTRON-ELECTRON POTENTIAL ENERGY =     284.2026927269
  NUCLEUS-ELECTRON POTENTIAL ENERGY =   -1001.5980723576
   NUCLEUS-NUCLEUS POTENTIAL ENERGY =     188.0524670565
                                      ------------------
             TOTAL POTENTIAL ENERGY =    -529.3429125742
               TOTAL KINETIC ENERGY =     263.6553259413
                 VIRIAL RATIO (V/T) =       2.0077080206

          ---------------------------------------
          MULLIKEN AND LOWDIN POPULATION ANALYSES
          ---------------------------------------

     ATOMIC MULLIKEN POPULATION IN EACH MOLECULAR ORBITAL

                      1          2          3          4          5

                  2.000000   2.000000   2.000000   2.000000   2.000000

    1             2.001162   0.000002  -0.000366   0.000000  -0.000000
    2            -0.000628   0.000000  -0.000022  -0.000000  -0.000000
    3            -0.000513  -0.000000   2.003001  -0.000736  -0.000000
    4             0.000002  -0.000000  -0.000716   2.002929  -0.000218
    5            -0.000000  -0.000000   0.000000  -0.000228   2.003198
    6             0.000000  -0.000625   0.000000   0.000000  -0.000000
    7             0.000003   2.001272  -0.000000  -0.000000  -0.000000
    8            -0.000033  -0.000649  -0.000001   0.000000  -0.000000
    9             0.000003  -0.000000  -0.000950   0.000000  -0.000000
   10             0.000003   0.000000  -0.000948   0.000000   0.000000
   11            -0.000000   0.000000   0.000000  -0.000985  -0.000001
   12            -0.000000   0.000000   0.000000  -0.000986  -0.000001
   13            -0.000000  -0.000000   0.000000   0.000001  -0.000993
   14            -0.000000  -0.000000   0.000000   0.000001  -0.000992
   15            -0.000000  -0.000000  -0.000000   0.000002  -0.000993

                      6          7          8          9         10

                  2.000000   2.000000   2.000000   2.000000   2.000000

    1             1.514342   0.012690   0.068418   0.155144   0.074454
    2             0.161091   0.001628   0.017424   0.039744   0.001331
    3             0.266036   0.003558   0.290809   0.521631   0.387477
    4             0.015499   0.000228   0.716429   0.160203   0.526561
    5             0.000530   0.000017   0.502819   0.564891   0.231064
    6             0.000995   0.189258   0.000032   0.000111   0.000344
    7             0.010222   1.612074   0.000168   0.000514   0.001622
    8             0.010749   0.180185   0.000147   0.000863   0.002828
    9             0.009332   0.000197   0.031660   0.104325   0.128279
   10             0.009298   0.000151   0.031265   0.103523   0.124498
   11             0.000910  -0.000004   0.082761   0.003216   0.173725
   12             0.000933   0.000016   0.083643   0.003253   0.175667
   13             0.000025   0.000001   0.060277   0.106289   0.069873
   14             0.000025   0.000001   0.059936   0.105640   0.069294
   15             0.000012   0.000001   0.054213   0.130652   0.032984

                     11         12         13         14         15

                  2.000000   2.000000   2.000000   2.000000   2.000000

    1             0.226828   0.807160   0.258327   0.109610   0.107855
    2             0.025601   0.388060   0.000675   0.000196   0.000562
    3             0.514875   0.387550   0.162367   0.170475   0.305356
    4             0.344722   0.115859   0.181520   0.217633   0.067195
    5             0.131987   0.094560   0.281780   0.514133   0.412483
    6             0.012274   0.001575   0.167700   0.100335   0.113194
    7             0.035457   0.005046   0.419066   0.230653   0.247670
    8             0.035072   0.005369   0.244001   0.102043   0.080684
    9             0.207188   0.016095   0.000315   0.001285   0.177941
   10             0.140413   0.109461   0.000093   0.056312   0.080700
   11             0.098906   0.024200   0.065036  -0.000026   0.033947
   12             0.131492   0.001373   0.000055   0.074656   0.019134
   13             0.034985   0.028960   0.081408   0.000290   0.221375
   14             0.059860   0.001276   0.000500   0.183950   0.107678
   15             0.000340   0.013457   0.137157   0.238456   0.024226

                     16         17         18         19         20

                  2.000000   2.000000   2.000000   2.000000   2.000000

    1             0.388460   0.149839   0.323370   0.208753   0.695839
    2             0.032941   0.001752   0.011088   0.069066   0.056273
    3             0.126386   0.054784   0.190791   0.333715   0.183213
    4             0.336618   0.476264   0.509908   0.318371   0.102503
    5             0.467857   0.355929   0.511350   0.095966   0.009220
    6             0.048218   0.026702   0.025892   0.111351   0.056435
    7             0.100414   0.069663   0.070668   0.534764   0.617913
    8             0.000259   0.000961   0.001474   0.041577   0.063049
    9             0.000718   0.006373   0.029441   0.096813   0.000098
   10             0.001758   0.033860   0.000565   0.010463   0.160930
   11             0.078524   0.168337   0.133026   0.056857   0.001865
   12             0.082121   0.302301   0.010684   0.011555   0.037501
   13             0.109021   0.127141   0.084420   0.016479   0.001597
   14             0.119771   0.212408   0.010363   0.005447   0.004655
   15             0.106935   0.013686   0.086959   0.088823   0.008909

                     21         22

                  2.000000   2.000000

    1             1.192114   0.000274
    2             0.004305   0.000045
    3             0.089497   0.000119
    4             0.008623   0.000995
    5             0.000636   0.000107
    6             0.005018   0.000000
    7             0.426195   1.998025
    8             0.034408   0.000006
    9             0.138740   0.000098
   10             0.083763   0.000013
   11             0.011938   0.000152
   12             0.004481   0.000037
   13             0.000279   0.000109
   14             0.000000   0.000005
   15             0.000003   0.000015

               ----- POPULATIONS IN EACH AO -----
                             MULLIKEN      LOWDIN
              1  O  1  S      1.99772     1.99586
              2  O  1  S      1.82869     1.70127
              3  O  1  X      1.31501     1.33551
              4  O  1  Y      1.31820     1.33329
              5  O  1  Z      1.83466     1.83734
              6  H  2  S      0.81113     0.86615
              7  C  3  S      1.99239     1.98480
              8  C  3  S      1.17950     1.04751
              9  C  3  X      0.81899     0.86220
             10  C  3  Y      0.99237     1.02181
             11  C  3  Z      1.00714     1.03014
             12  C  4  S      1.99204     1.98503
             13  C  4  S      1.17845     1.02640
             14  C  4  X      0.96911     1.00209
             15  C  4  Y      0.94648     0.98552
             16  C  4  Z      1.01505     1.03824
             17  C  5  S      1.99203     1.98537
             18  C  5  S      1.18349     1.01329
             19  C  5  X      0.96624     1.00237
             20  C  5  Y      1.01934     1.04395
             21  C  5  Z      1.01719     1.04241
             22  H  6  S      0.85881     0.90416
             23  O  7  S      1.99777     1.99619
             24  O  7  S      1.84231     1.70527
             25  O  7  X      1.46909     1.48554
             26  O  7  Y      1.67365     1.68317
             27  O  7  Z      1.39859     1.41407
             28  H  8  S      0.80299     0.85935
             29  H  9  S      0.94795     0.98278
             30  H 10  S      0.94612     0.98151
             31  H 11  S      0.93239     0.96662
             32  H 12  S      0.93792     0.97100
             33  H 13  S      0.94154     0.97197
             34  H 14  S      0.93982     0.97062
             35  H 15  S      0.93584     0.96724

          ----- MULLIKEN ATOMIC OVERLAP POPULATIONS -----
          (OFF-DIAGONAL ELEMENTS NEED TO BE MULTIPLIED BY 2)

             1           2           3           4           5

    1    7.8145616
    2    0.2557241   0.6007634
    3    0.2625156  -0.0391800   4.7268665
    4   -0.0172241   0.0024402   0.3573657   4.7351727
    5    0.0002119  -0.0000355  -0.0203159   0.3614978   4.7280710
    6    0.0003742  -0.0000101  -0.0000066   0.0000060  -0.0000000
    7   -0.0039676   0.0002469   0.0001110  -0.0000292   0.0000001
    8    0.0149044  -0.0024316  -0.0016533  -0.0002926   0.0000006
    9   -0.0158530  -0.0033901   0.3764207  -0.0222614  -0.0016738
   10   -0.0159079  -0.0030172   0.3762646  -0.0224190  -0.0015549
   11   -0.0005492   0.0000123  -0.0224395   0.3841548  -0.0209813
   12   -0.0005147   0.0000122  -0.0226653   0.3836867  -0.0211217
   13    0.0000024  -0.0000008  -0.0020410  -0.0206792   0.3843944
   14    0.0000022  -0.0000008  -0.0020317  -0.0206254   0.3845386
   15   -0.0000038   0.0000008   0.0011798  -0.0196655   0.3852681

             6           7           8           9          10

    6    0.6512002
    7    0.2519752   7.8782205
    8   -0.0447405   0.2548747   0.5823577
    9    0.0000004  -0.0000029   0.0000988   0.6422542
   10   -0.0000003   0.0000092  -0.0001098  -0.0274318   0.6405677
   11    0.0000099  -0.0000295  -0.0000161   0.0017922  -0.0024314
   12    0.0000004  -0.0000002  -0.0000003  -0.0023510   0.0018075
   13    0.0000000  -0.0000000  -0.0000000   0.0003505  -0.0000017
   14   -0.0000000   0.0000000   0.0000002  -0.0000036   0.0003451
   15    0.0000000  -0.0000000   0.0000000   0.0000013  -0.0000010

            11          12          13          14          15

   11    0.6185418
   12   -0.0232211   0.6247244
   13    0.0018126  -0.0021557   0.6236000
   14   -0.0021602   0.0018192  -0.0221347   0.6215950
   15   -0.0021095  -0.0021038  -0.0216106  -0.0215268   0.6164093

          TOTAL MULLIKEN AND LOWDIN ATOMIC POPULATIONS
       ATOM         MULL.POP.    CHARGE          LOW.POP.     CHARGE
    1 O             8.294276   -0.294276         8.203257   -0.203257
    2 H             0.811134    0.188866         0.866149    0.133851
    3 C             5.990391    0.009609         5.946449    0.053551
    4 C             6.101127   -0.101127         6.037280   -0.037280
    5 C             6.178299   -0.178299         6.087383   -0.087383
    6 H             0.858809    0.141191         0.904156    0.095844
    7 O             8.381408   -0.381408         8.284240   -0.284240
    8 H             0.802992    0.197008         0.859353    0.140647
    9 H             0.947950    0.052050         0.982776    0.017224
   10 H             0.946119    0.053881         0.981508    0.018492
   11 H             0.932386    0.067614         0.966621    0.033379
   12 H             0.937917    0.062083         0.971003    0.028997
   13 H             0.941536    0.058464         0.971969    0.028031
   14 H             0.939817    0.060183         0.970619    0.029381
   15 H             0.935838    0.064162         0.967236    0.032764

          -------------------------------
          BOND ORDER AND VALENCE ANALYSIS     BOND ORDER THRESHOLD=0.050
          -------------------------------

                   BOND                       BOND                       BOND
  ATOM PAIR DIST  ORDER      ATOM PAIR DIST  ORDER      ATOM PAIR DIST  ORDER
    1   2  0.989  0.943        1   3  1.438  0.970        1   8  1.762  0.051
    3   4  1.546  0.988        3   9  1.097  0.966        3  10  1.097  0.965
    4   5  1.540  1.000        4  11  1.088  0.974        4  12  1.088  0.975
    5  13  1.086  0.983        5  14  1.086  0.983        5  15  1.086  0.983
    6   7  0.988  0.972        7   8  0.989  0.901

                       TOTAL       BONDED        FREE
      ATOM            VALENCE     VALENCE     VALENCE
    1 O                 2.044       2.044       0.000
    2 H                 0.964       0.964       0.000
    3 C                 3.920       3.920      -0.000
    4 C                 3.963       3.963      -0.000
    5 C                 3.966       3.966      -0.000
    6 H                 0.980       0.980      -0.000
    7 O                 1.906       1.906      -0.000
    8 H                 0.961       0.961      -0.000
    9 H                 0.997       0.997       0.000
   10 H                 0.997       0.997      -0.000
   11 H                 0.995       0.995       0.000
   12 H                 0.996       0.996      -0.000
   13 H                 0.997       0.997       0.000
   14 H                 0.996       0.996       0.000
   15 H                 0.996       0.996      -0.000

          ---------------------
          ELECTROSTATIC MOMENTS
          ---------------------

 POINT   1           X           Y           Z (BOHR)    CHARGE
                -6.277115    0.060406    0.790190        0.00 (A.U.)
         DX          DY          DZ         /D/  (DEBYE)
     0.933603    0.118747   -2.666143    2.827372
 ...... END OF PROPERTY EVALUATION ......
 STEP CPU TIME =     0.00 TOTAL CPU TIME =         14.4 (      0.2 MIN)
 TOTAL WALL CLOCK TIME=         14.9 SECONDS, CPU UTILIZATION IS    96.70%
  $VIB   
          IVIB=   0 IATOM=   0 ICOORD=   0 E=     -265.6875866329
  2.491890646E-05 8.287311145E-06-2.688585036E-05-6.202190585E-06-4.787073820E-06
  3.409169209E-06 1.169704775E-05 5.670323351E-06-7.360568490E-06-9.364059160E-06
 -6.274966009E-06 1.119739369E-05-1.757612321E-05-9.645541170E-06 7.807495526E-06
 -5.245639727E-05-3.070359988E-05-1.614357616E-05 6.175563925E-05 1.703702230E-05
  5.752886109E-05-7.488093499E-06 1.892332926E-05-3.671774321E-05-7.999921521E-06
  4.962250265E-06 2.896484724E-05-2.767251205E-05-9.612691214E-06-1.078728463E-05
  2.903658734E-06-1.331911252E-06-1.020961659E-05 1.140624522E-05 2.221768308E-06
  8.597694157E-06 5.041883458E-06 6.800171247E-06-2.571246169E-05 9.684856692E-06
  1.499212169E-05 1.038951351E-05 1.351036049E-06-1.653851414E-05 5.922122465E-06
  9.336029713E-01 1.187468796E-01-2.666142884E+00
 ......END OF GEOMETRY SEARCH......
 STEP CPU TIME =     0.00 TOTAL CPU TIME =         14.4 (      0.2 MIN)
 TOTAL WALL CLOCK TIME=         14.9 SECONDS, CPU UTILIZATION IS    96.70%
               580000  WORDS OF DYNAMIC MEMORY USED
 EXECUTION OF GAMESS TERMINATED NORMALLY Mon Mar  9 21:13:02 2020
 DDI: 263640 bytes (0.3 MB / 0 MWords) used by master data server.

 ----------------------------------------
 CPU timing information for all processes
 ========================================
 0: 13.759 + 0.611 = 14.370
 1: 0.01 + 0.01 = 0.02
 ----------------------------------------
 ddikick.x: exited gracefully.
unset echo
----- accounting info -----
Files used on the master node 192.168.0.12 were:
-rw-r--r--@ 1 wurthel  staff      908 Mar  9 21:12 .//input/complex_4.F05
-rw-r--r--  1 wurthel  staff  2160192 Mar  9 21:13 .//input/complex_4.F08
-rw-r--r--  1 wurthel  staff  1701440 Mar  9 21:13 .//input/complex_4.F10
-rw-r--r--  1 wurthel  staff  1710317 Mar  9 21:13 .//input/complex_4.dat
-rw-r--r--@ 1 wurthel  staff      908 Mar  9 21:04 .//input/complex_4.inp
-rw-r--r--  1 wurthel  staff  1079788 Mar  9 21:13 .//input/complex_4.log
ls: No match.
ls: No match.
ls: No match.
Mon Mar  9 21:13:05 MSK 2020
13.826u 0.667s 0:17.99 80.4%	0+0k 0+0io 0pf+0w
