----- GAMESS execution script 'rungms' -----
This job is running on host 192.168.0.12
under operating system Darwin at Mon Mar 9 21:12:10 MSK 2020
Available scratch disk space (Kbyte units) at beginning of the job is
Filesystem   1024-blocks     Used Available Capacity iused               ifree %iused  Mounted on
/dev/disk1s5   118181844 44011388  70808032    39%  990760 9223372036853785047    0%   /
GAMESS temporary binary files will be written to ./
GAMESS supplementary output files will be written to ./
Copying input file input/complex_1.inp to your run's scratch directory...
cp input/complex_1.inp .//input/complex_1.F05
unset echo
.//ddikick.x .//gamess.30Sep2018R3.x input/complex_1 -ddi 1 1 192.168.0.12 -scr ./

 Distributed Data Interface kickoff program.
 Initiating 1 compute processes on 1 nodes to run the following command:
 .//gamess.30Sep2018R3.x input/complex_1 

          ******************************************************
          *         GAMESS VERSION = 30 SEP 2018 (R3)         *
          *             FROM IOWA STATE UNIVERSITY             *
          * M.W.SCHMIDT, K.K.BALDRIDGE, J.A.BOATZ, S.T.ELBERT, *
          *   M.S.GORDON, J.H.JENSEN, S.KOSEKI, N.MATSUNAGA,   *
          *          K.A.NGUYEN, S.J.SU, T.L.WINDUS,           *
          *       TOGETHER WITH M.DUPUIS, J.A.MONTGOMERY       *
          *         J.COMPUT.CHEM.  14, 1347-1363(1993)        *
          **************** 64 BIT APPLE VERSION ****************

  SINCE 1993, STUDENTS AND POSTDOCS WORKING AT IOWA STATE UNIVERSITY
  AND ALSO IN THEIR VARIOUS JOBS AFTER LEAVING ISU HAVE MADE IMPORTANT
  CONTRIBUTIONS TO THE CODE:
     IVANA ADAMOVIC, CHRISTINE AIKENS, YURI ALEXEEV, POOJA ARORA,
     ANDREY ASADCHEV, ROB BELL, PRADIPTA BANDYOPADHYAY, JONATHAN BENTZ,
     BRETT BODE, KURT BRORSEN, CALEB CARLIN, GALINA CHABAN, WEI CHEN,
     CHEOL HO CHOI, PAUL DAY, ALBERT DEFUSCO, NUWAN DESILVA, TIM DUDLEY,
     DMITRI FEDOROV, ALEX FINDLATER, GRAHAM FLETCHER, MARK FREITAG,
     KURT GLAESEMANN, ANASTASIA GUNINA,
     DAN KEMP, GRANT MERRILL, NORIYUKI MINEZAWA, JONATHAN MULLIN,
     TAKESHI NAGATA, SEAN NEDD, HEATHER NETZLOFF, BOSILJKA NJEGIC, RYAN OLSON,
     MIKE PAK, BUU PHAM,
     SPENCER PRUITT, LUKE ROSKOP, JIM SHOEMAKER, LYUDMILA SLIPCHENKO,
     TONY SMITH, SAROM SOK LEANG, JIE SONG, TETSUYA TAKETSUGU, SIMON WEBB,
     PENG XU, SOOHAENG YOO, FEDERICO ZAHARIEV

  ADDITIONAL CODE HAS BEEN PROVIDED BY COLLABORATORS IN OTHER GROUPS:
     IOWA STATE UNIVERSITY:
          JOE IVANIC, AARON WEST, LAIMUTIS BYTAUTAS, KLAUS RUEDENBERG
     UNIVERSITY OF TOKYO: KIMIHIKO HIRAO, TAKAHITO NAKAJIMA,
          TAKAO TSUNEDA, MUNEAKI KAMIYA, SUSUMU YANAGISAWA,
          KIYOSHI YAGI, MAHITO CHIBA, SEIKEN TOKURA, NAOAKI KAWAKAMI
     UNIVERSITY OF AARHUS: FRANK JENSEN
     UNIVERSITY OF IOWA: VISVALDAS KAIRYS, HUI LI
     NATIONAL INST. OF STANDARDS AND TECHNOLOGY: WALT STEVENS, DAVID GARMER
     UNIVERSITY OF PISA: BENEDETTA MENNUCCI, JACOPO TOMASI
     UNIVERSITY OF MEMPHIS: HENRY KURTZ, PRAKASHAN KORAMBATH
     UNIVERSITY OF ALBERTA: TOBY ZENG, MARIUSZ KLOBUKOWSKI
     UNIVERSITY OF NEW ENGLAND: MARK SPACKMAN
     MIE UNIVERSITY: HIROAKI UMEDA
     NAT. INST. OF ADVANCED INDUSTRIAL SCIENCE AND TECHNOLOGY: KAZUO KITAURA
     MICHIGAN STATE UNIVERSITY:
          KAROL KOWALSKI, MARTA WLOCH, JEFFREY GOUR, JESSE LUTZ,
          WEI LI, JUN SHEN, J. EMILIANO DEUSTUA, PIOTR PIECUCH
     UNIVERSITY OF MINNESOTA:
          YINAN SHU
     UNIVERSITY OF SILESIA: MONIKA MUSIAL, STANISLAW KUCHARSKI
     FACULTES UNIVERSITAIRES NOTRE-DAME DE LA PAIX:
          OLIVIER QUINET, BENOIT CHAMPAGNE
     UNIVERSITY OF CALIFORNIA - SANTA BARBARA: BERNARD KIRTMAN
     INSTITUTE FOR MOLECULAR SCIENCE:
          KAZUYA ISHIMURA, MICHIO KATOUDA, AND SHIGERU NAGASE
     UNIVERSITY OF NOTRE DAME: ANNA POMOGAEVA, DAN CHIPMAN
     KYUSHU UNIVERSITY:
          HARUYUKI NAKANO,
          FENG LONG GU, JACEK KORCHOWIEC, MARCIN MAKOWSKI, AND YURIKO AOKI,
          HIROTOSHI MORI AND EISAKU MIYOSHI
     PENNSYLVANIA STATE UNIVERSITY:
          TZVETELIN IORDANOV, CHET SWALINA, JONATHAN SKONE,
          SHARON HAMMES-SCHIFFER
     WASEDA UNIVERSITY:
          MASATO KOBAYASHI, TOMOKO AKAMA, TSUGUKI TOUMA,
          TAKESHI YOSHIKAWA, YASUHIRO IKABATA, JUNJI SEINO,
          YUYA NAKAJIMA, HIROMI NAKAI
     NANJING UNIVERSITY: SHUHUA LI
     UNIVERSITY OF NEBRASKA:
          PEIFENG SU, DEJUN SI, NANDUN THELLAMUREGE, YALI WANG, HUI LI
     UNIVERSITY OF ZURICH: ROBERTO PEVERATI, KIM BALDRIDGE
     N. COPERNICUS UNIVERSITY AND JACKSON STATE UNIVERSITY:
          MARIA BARYSZ
     UNIVERSITY OF COPENHAGEN: Jimmy Kromann, CASPER STEINMANN
     TOKYO INSTITUTE OF TECHNOLOGY: HIROYA NAKATA
     NAGOYA UNIVERSITY: YOSHIO NISHIMOTO, STEPHAN IRLE
     MOSCOW STATE UNIVERSITY: VLADIMIR MIRONOV

 EXECUTION OF GAMESS BEGUN Mon Mar  9 21:12:10 2020

            ECHO OF THE FIRST FEW INPUT CARDS -
 INPUT CARD>!   File created by the GAMESS Input Deck Generator Plugin for Avogadro         
 INPUT CARD> $BASIS GBASIS=STO NGAUSS=3 $END                                                
 INPUT CARD> $CONTRL SCFTYP=RHF RUNTYP=OPTIMIZE MAXIT=200 $END                              
 INPUT CARD> $STATPT OPTTOL=0.0001 NSTEP=200 $END                                           
 INPUT CARD>                                                                                
 INPUT CARD> $DATA                                                                          
 INPUT CARD>Title                                                                           
 INPUT CARD>C1                                                                              
 INPUT CARD>O     8.0    -4.15553     1.07610     0.20197                                   
 INPUT CARD>H     1.0    -4.41033     1.93750    -0.15593                                   
 INPUT CARD>C     6.0    -2.90373     0.59050    -0.28733                                   
 INPUT CARD>C     6.0    -2.60363    -0.77120     0.34237                                   
 INPUT CARD>C     6.0    -1.26343    -1.29110    -0.18143                                   
 INPUT CARD>H     1.0    -5.67800     3.10559     0.01026                                   
 INPUT CARD>O     8.0    -4.79995     2.85619    -0.30894                                   
 INPUT CARD>H     1.0    -4.32938     3.56880    -0.76281                                   
 INPUT CARD>H     1.0    -2.95293     0.48670    -1.37123                                   
 INPUT CARD>H     1.0    -2.11363     1.29410    -0.02513                                   
 INPUT CARD>H     1.0    -2.55453    -0.66740     1.42627                                   
 INPUT CARD>H     1.0    -3.39383    -1.47480     0.08027                                   
 INPUT CARD>H     1.0    -1.31253    -1.39490    -1.26533                                   
 INPUT CARD>H     1.0    -0.47323    -0.58750     0.08067                                   
 INPUT CARD>H     1.0    -1.04963    -2.26120     0.26717                                   
 INPUT CARD> $END                                                                           
    1000000 WORDS OF MEMORY AVAILABLE

     BASIS OPTIONS
     -------------
     GBASIS=STO          IGAUSS=       3      POLAR=NONE    
     NDFUNC=       0     NFFUNC=       0     DIFFSP=       F
     NPFUNC=       0      DIFFS=       F     BASNAM=        


     RUN TITLE
     ---------
 Title                                                                           

 THE POINT GROUP OF THE MOLECULE IS C1      
 THE ORDER OF THE PRINCIPAL AXIS IS     0

 ATOM      ATOMIC                      COORDINATES (BOHR)
           CHARGE         X                   Y                   Z
 O           8.0    -7.8528130338        2.0335341354        0.3816679577
 H           1.0    -8.3343152154        3.6613441012       -0.2946649733
 C           6.0    -5.4872540423        1.1158831957       -0.5429749681
 C           6.0    -4.9201472734       -1.4573566817        0.6469854864
 C           6.0    -2.3875365047       -2.4398252227       -0.3428529860
 H           1.0   -10.7298641583        5.8687141302        0.0193885886
 O           8.0    -9.0705902548        5.3974164689       -0.5838119466
 H           1.0    -8.1813418967        6.7440541050       -1.4415018807
 H           1.0    -5.5802285609        0.9197296382       -2.5912489661
 H           1.0    -3.9941815394        2.4454944007       -0.0474888141
 H           1.0    -4.8273617274       -1.2612031242        2.6952594845
 H           1.0    -6.4134087489       -2.7869678867        0.1516883050
 H           1.0    -2.4803220507       -2.6359787803       -2.3911269840
 H           1.0    -0.8942750292       -1.1102140178        0.1524441954
 H           1.0    -1.9835130885       -4.2730484034        0.5048780921

          INTERNUCLEAR DISTANCES (ANGS.)
          ------------------------------

                1 O          2 H          3 C          4 C          5 C     

   1 O       0.0000000    0.9669671 *  1.4290644 *  2.4167381 *  3.7569767  
   2 H       0.9669671 *  0.0000000    2.0252206 *  3.2938615    4.5086015  
   3 C       1.4290644 *  2.0252206 *  0.0000000    1.5299703 *  2.4984430 *
   4 C       2.4167381 *  3.2938615    1.5299703 *  0.0000000    1.5299668 *
   5 C       3.7569767    4.5086015    2.4984430 *  1.5299668 *  0.0000000  
   6 H       2.5443068 *  1.7317738 *  3.7564360    4.9589867    6.2334626  
   7 O       1.9608739 *  1.0095579 *  2.9545674 *  4.2902196    5.4519030  
   8 H       2.6785402 *  1.7424110 *  3.3359901    4.7995037    5.7755242  
   9 H       2.0660584 *  2.3886794 *  1.0899699 *  2.1542395 *  2.7259140 *
  10 H       2.0660237 *  2.3887032 *  1.0899816 *  2.1542099 *  2.7258996 *
  11 H       2.6649397 *  3.5683126    2.1542233 *  1.0899653 *  2.1542145 *
  12 H       2.6649744 *  3.5683125    2.1542497 *  1.0900300 *  2.1542601 *
  13 H       4.0424571    4.6831638    2.7258420 *  2.1542145 *  1.0899653 *
  14 H       4.0424760    4.6831999    2.7258830 *  2.1542601 *  1.0900300 *
  15 H       4.5594339    5.3946640    3.4463531    2.1542217 *  1.0899754 *

                6 H          7 O          8 H          9 H         10 H     

   1 O       2.5443068 *  1.9608739 *  2.6785402 *  2.0660584 *  2.0660237 *
   2 H       1.7317738 *  1.0095579 *  1.7424110 *  2.3886794 *  2.3887032 *
   3 C       3.7564360    2.9545674 *  3.3359901    1.0899699 *  1.0899816 *
   4 C       4.9589867    4.2902196    4.7995037    2.1542395 *  2.1542099 *
   5 C       6.2334626    5.4519030    5.7755242    2.7259140 *  2.7258996 *
   6 H       0.0000000    0.9669854 *  1.6220286 *  4.0240658    3.9984349  
   7 O       0.9669854 *  0.0000000    0.9670818 *  3.1866010    3.1204148  
   8 H       1.6220286 *  0.9670818 *  0.0000000    3.4298877    3.2600583  
   9 H       4.0240658    3.1866010    3.4298877    0.0000000    1.7799732 *
  10 H       3.9984349    3.1204148    3.2600583    1.7799732 *  0.0000000  
  11 H       5.0986864    4.5242183    5.0879813    3.0523230    2.4796042 *
  12 H       5.1188189    4.5701348    5.1984554    2.4796627 *  3.0523480  
  13 H       6.3983489    5.5810883    5.8302854    2.4985087 *  3.0676666  
  14 H       6.3822803    5.5435821    5.7320311    3.0677078    2.4985044 *
  15 H       7.0915616    6.3705952    6.7680513    3.7226147    3.7225923  

               11 H         12 H         13 H         14 H         15 H     

   1 O       2.6649397 *  2.6649744 *  4.0424571    4.0424760    4.5594339  
   2 H       3.5683126    3.5683125    4.6831638    4.6831999    5.3946640  
   3 C       2.1542233 *  2.1542497 *  2.7258420 *  2.7258830 *  3.4463531  
   4 C       1.0899653 *  1.0900300 *  2.1542145 *  2.1542601 *  2.1542217 *
   5 C       2.1542145 *  2.1542601 *  1.0899653 *  1.0900300 *  1.0899754 *
   6 H       5.0986864    5.1188189    6.3983489    6.3822803    7.0915616  
   7 O       4.5242183    4.5701348    5.5810883    5.5435821    6.3705952  
   8 H       5.0879813    5.1984554    5.8302854    5.7320311    6.7680513  
   9 H       3.0523230    2.4796627 *  2.4985087 *  3.0677078    3.7226147  
  10 H       2.4796042 *  3.0523480    3.0676666    2.4985044 *  3.7225923  
  11 H       0.0000000    1.7798975 *  3.0522993    2.4796841 *  2.4796039 *
  12 H       1.7798975 *  0.0000000    2.4796841 *  3.0524098    2.4796432 *
  13 H       3.0522993    2.4796841 *  0.0000000    1.7798975 *  1.7799293 *
  14 H       2.4796841 *  3.0524098    1.7798975 *  0.0000000    1.7799694 *
  15 H       2.4796039 *  2.4796432 *  1.7799293 *  1.7799694 *  0.0000000  

  * ... LESS THAN  3.000


     ATOMIC BASIS SET
     ----------------
 THE CONTRACTED PRIMITIVE FUNCTIONS HAVE BEEN UNNORMALIZED
 THE CONTRACTED BASIS FUNCTIONS ARE NOW NORMALIZED TO UNITY

  SHELL TYPE  PRIMITIVE        EXPONENT          CONTRACTION COEFFICIENT(S)

 O         

      1   S       1           130.7093214    0.154328967295
      1   S       2            23.8088661    0.535328142282
      1   S       3             6.4436083    0.444634542185

      2   L       4             5.0331513   -0.099967229187    0.155916274999
      2   L       5             1.1695961    0.399512826089    0.607683718598
      2   L       6             0.3803890    0.700115468880    0.391957393099

 H         

      3   S       7             3.4252509    0.154328967295
      3   S       8             0.6239137    0.535328142282
      3   S       9             0.1688554    0.444634542185

 C         

      4   S      10            71.6168373    0.154328967295
      4   S      11            13.0450963    0.535328142282
      4   S      12             3.5305122    0.444634542185

      5   L      13             2.9412494   -0.099967229187    0.155916274999
      5   L      14             0.6834831    0.399512826089    0.607683718598
      5   L      15             0.2222899    0.700115468880    0.391957393099

 C         

      6   S      16            71.6168373    0.154328967295
      6   S      17            13.0450963    0.535328142282
      6   S      18             3.5305122    0.444634542185

      7   L      19             2.9412494   -0.099967229187    0.155916274999
      7   L      20             0.6834831    0.399512826089    0.607683718598
      7   L      21             0.2222899    0.700115468880    0.391957393099

 C         

      8   S      22            71.6168373    0.154328967295
      8   S      23            13.0450963    0.535328142282
      8   S      24             3.5305122    0.444634542185

      9   L      25             2.9412494   -0.099967229187    0.155916274999
      9   L      26             0.6834831    0.399512826089    0.607683718598
      9   L      27             0.2222899    0.700115468880    0.391957393099

 H         

     10   S      28             3.4252509    0.154328967295
     10   S      29             0.6239137    0.535328142282
     10   S      30             0.1688554    0.444634542185

 O         

     11   S      31           130.7093214    0.154328967295
     11   S      32            23.8088661    0.535328142282
     11   S      33             6.4436083    0.444634542185

     12   L      34             5.0331513   -0.099967229187    0.155916274999
     12   L      35             1.1695961    0.399512826089    0.607683718598
     12   L      36             0.3803890    0.700115468880    0.391957393099

 H         

     13   S      37             3.4252509    0.154328967295
     13   S      38             0.6239137    0.535328142282
     13   S      39             0.1688554    0.444634542185

 H         

     14   S      40             3.4252509    0.154328967295
     14   S      41             0.6239137    0.535328142282
     14   S      42             0.1688554    0.444634542185

 H         

     15   S      43             3.4252509    0.154328967295
     15   S      44             0.6239137    0.535328142282
     15   S      45             0.1688554    0.444634542185

 H         

     16   S      46             3.4252509    0.154328967295
     16   S      47             0.6239137    0.535328142282
     16   S      48             0.1688554    0.444634542185

 H         

     17   S      49             3.4252509    0.154328967295
     17   S      50             0.6239137    0.535328142282
     17   S      51             0.1688554    0.444634542185

 H         

     18   S      52             3.4252509    0.154328967295
     18   S      53             0.6239137    0.535328142282
     18   S      54             0.1688554    0.444634542185

 H         

     19   S      55             3.4252509    0.154328967295
     19   S      56             0.6239137    0.535328142282
     19   S      57             0.1688554    0.444634542185

 H         

     20   S      58             3.4252509    0.154328967295
     20   S      59             0.6239137    0.535328142282
     20   S      60             0.1688554    0.444634542185

 TOTAL NUMBER OF BASIS SET SHELLS             =   20
 NUMBER OF CARTESIAN GAUSSIAN BASIS FUNCTIONS =   35
 NUMBER OF ELECTRONS                          =   44
 CHARGE OF MOLECULE                           =    0
 SPIN MULTIPLICITY                            =    1
 NUMBER OF OCCUPIED ORBITALS (ALPHA)          =   22
 NUMBER OF OCCUPIED ORBITALS (BETA )          =   22
 TOTAL NUMBER OF ATOMS                        =   15
 THE NUCLEAR REPULSION ENERGY IS      196.2618784358

     $CONTRL OPTIONS
     ---------------
 SCFTYP=RHF          RUNTYP=OPTIMIZE     EXETYP=RUN     
 MPLEVL=       0     CITYP =NONE         CCTYP =NONE         VBTYP =NONE    
 DFTTYP=NONE         TDDFT =NONE    
 MULT  =       1     ICHARG=       0     NZVAR =       0     COORD =UNIQUE  
 PP    =NONE         RELWFN=NONE         LOCAL =NONE         NUMGRD=       F
 ISPHER=      -1     NOSYM =       0     MAXIT =     200     UNITS =ANGS    
 PLTORB=       F     MOLPLT=       F     AIMPAC=       F     FRIEND=        
 NPRINT=       7     IREST =       0     GEOM  =INPUT   
 NORMF =       0     NORMP =       0     ITOL  =      20     ICUT  =       9
 INTTYP=BEST         GRDTYP=BEST         QMTTOL= 1.0E-06

     $SYSTEM OPTIONS
     ---------------
  REPLICATED MEMORY=     1000000 WORDS (ON EVERY NODE).
 DISTRIBUTED MEMDDI=           0 MILLION WORDS IN AGGREGATE,
 MEMDDI DISTRIBUTED OVER   1 PROCESSORS IS           0 WORDS/PROCESSOR.
 TOTAL MEMORY REQUESTED ON EACH PROCESSOR=     1000000 WORDS.
 TIMLIM=      525600.00 MINUTES, OR     365.0 DAYS.
 PARALL= F  BALTYP=  DLB     KDIAG=    0  COREFL= F
 MXSEQ2=     300 MXSEQ3=     150  mem10=         0

          ----------------
          PROPERTIES INPUT
          ----------------

     MOMENTS            FIELD           POTENTIAL          DENSITY
 IEMOM =       1   IEFLD =       0   IEPOT =       0   IEDEN =       0
 WHERE =COMASS     WHERE =NUCLEI     WHERE =NUCLEI     WHERE =NUCLEI  
 OUTPUT=BOTH       OUTPUT=BOTH       OUTPUT=BOTH       OUTPUT=BOTH    
 IEMINT=       0   IEFINT=       0                     IEDINT=       0
                                                       MORB  =       0
          EXTRAPOLATION IN EFFECT
          SOSCF IN EFFECT
 ORBITAL PRINTING OPTION: NPREO=     1    35     2     1

     -------------------------------
     INTEGRAL TRANSFORMATION OPTIONS
     -------------------------------
     NWORD  =            0
     CUTOFF = 1.0E-09     MPTRAN =       0
     DIRTRF =       F     AOINTS =DUP     

          ----------------------
          INTEGRAL INPUT OPTIONS
          ----------------------
 NOPK  =       1 NORDER=       0 SCHWRZ=       T

     ------------------------------------------
     THE POINT GROUP IS C1 , NAXIS= 0, ORDER= 1
     ------------------------------------------

     DIMENSIONS OF THE SYMMETRY SUBSPACES ARE
 A   =   35

 ..... DONE SETTING UP THE RUN .....
 STEP CPU TIME =     0.01 TOTAL CPU TIME =          0.0 (      0.0 MIN)
 TOTAL WALL CLOCK TIME=          0.1 SECONDS, CPU UTILIZATION IS     8.33%


          -----------------------------
          STATIONARY POINT LOCATION RUN
          -----------------------------

 OBTAINING INITIAL HESSIAN, HESS=GUESS   
 CARTESIAN COORDINATE OPTIMIZATION USING BADGER'S RULE FORCE CONSTANT GUESS

          PARAMETERS CONTROLLING GEOMETRY SEARCH ARE
          METHOD =QA                  UPHESS =BFGS    
          NNEG   =         0          NFRZ   =         0
          NSTEP  =       200          IFOLOW =         1
          HESS   =GUESS               RESTAR =         F
          IHREP  =         0          HSSEND =         F
          NPRT   =         0          NPUN   =         0
          OPTTOL = 1.000E-04          RMIN   = 1.500E-03
          RMAX   = 1.000E-01          RLIM   = 7.000E-02
          DXMAX  = 3.000E-01          PURIFY =         F
          MOVIE  =         F          TRUPD  =         T
          TRMAX  = 5.000E-01          TRMIN  = 5.000E-02
          ITBMAT =         5          STPT   =         F
          STSTEP = 1.000E-02          PROJCT=          T

 BEGINNING GEOMETRY SEARCH POINT NSERCH=   0 ...

 COORDINATES OF ALL ATOMS ARE (ANGS)
   ATOM   CHARGE       X              Y              Z
 ------------------------------------------------------------
 O           8.0  -4.1555300000   1.0761000000   0.2019700000
 H           1.0  -4.4103300000   1.9375000000  -0.1559300000
 C           6.0  -2.9037300000   0.5905000000  -0.2873300000
 C           6.0  -2.6036300000  -0.7712000000   0.3423700000
 C           6.0  -1.2634300000  -1.2911000000  -0.1814300000
 H           1.0  -5.6780000000   3.1055900000   0.0102600000
 O           8.0  -4.7999500000   2.8561900000  -0.3089400000
 H           1.0  -4.3293800000   3.5688000000  -0.7628100000
 H           1.0  -2.9529300000   0.4867000000  -1.3712300000
 H           1.0  -2.1136300000   1.2941000000  -0.0251300000
 H           1.0  -2.5545300000  -0.6674000000   1.4262700000
 H           1.0  -3.3938300000  -1.4748000000   0.0802700000
 H           1.0  -1.3125300000  -1.3949000000  -1.2653300000
 H           1.0  -0.4732300000  -0.5875000000   0.0806700000
 H           1.0  -1.0496300000  -2.2612000000   0.2671700000

          ********************
          1 ELECTRON INTEGRALS
          ********************
 ...... END OF ONE-ELECTRON INTEGRALS ......
 STEP CPU TIME =     0.02 TOTAL CPU TIME =          0.0 (      0.0 MIN)
 TOTAL WALL CLOCK TIME=          0.1 SECONDS, CPU UTILIZATION IS    23.08%

          -------------
          GUESS OPTIONS
          -------------
          GUESS =HUCKEL            NORB  =       0          NORDER=       0
          MIX   =       F          PRTMO =       F          PUNMO =       F
          TOLZ  = 1.0E-08          TOLE  = 1.0E-05
          SYMDEN=       F          PURIFY=       F

 INITIAL GUESS ORBITALS GENERATED BY HUCKEL   ROUTINE.
 HUCKEL GUESS REQUIRES     23880 WORDS.

 SYMMETRIES FOR INITIAL GUESS ORBITALS FOLLOW.   BOTH SET(S).
    22 ORBITALS ARE OCCUPIED (    5 CORE ORBITALS).
     6=A        7=A        8=A        9=A       10=A       11=A       12=A   
    13=A       14=A       15=A       16=A       17=A       18=A       19=A   
    20=A       21=A       22=A       23=A       24=A       25=A       26=A   
    27=A       28=A       29=A       30=A       31=A       32=A   
 ...... END OF INITIAL ORBITAL SELECTION ......
 STEP CPU TIME =     0.00 TOTAL CPU TIME =          0.0 (      0.0 MIN)
 TOTAL WALL CLOCK TIME=          0.1 SECONDS, CPU UTILIZATION IS    23.08%

                    ----------------------
                    AO INTEGRAL TECHNOLOGY
                    ----------------------
     S,P,L SHELL ROTATED AXIS INTEGRALS, REPROGRAMMED BY
        KAZUYA ISHIMURA (IMS) AND JOSE SIERRA (SYNSTAR).
     S,P,D,L SHELL ROTATED AXIS INTEGRALS PROGRAMMED BY
        KAZUYA ISHIMURA (INSTITUTE FOR MOLECULAR SCIENCE).
     S,P,D,F,G SHELL TO TOTAL QUARTET ANGULAR MOMENTUM SUM 5,
        ERIC PROGRAM BY GRAHAM FLETCHER (ELORET AND NASA ADVANCED
        SUPERCOMPUTING DIVISION, AMES RESEARCH CENTER).
     S,P,D,F,G,L SHELL GENERAL RYS QUADRATURE PROGRAMMED BY
        MICHEL DUPUIS (PACIFIC NORTHWEST NATIONAL LABORATORY).

          --------------------
          2 ELECTRON INTEGRALS
          --------------------

 THE -PK- OPTION IS OFF, THE INTEGRALS ARE NOT IN SUPERMATRIX FORM.
 STORING   15000 INTEGRALS/RECORD ON DISK, USING 12 BYTES/INTEGRAL.
 TWO ELECTRON INTEGRAL EVALUATION REQUIRES   89566 WORDS OF MEMORY.
 SCHWARZ INEQUALITY OVERHEAD:       619 INTEGRALS, T=        0.00
 II,JST,KST,LST =  1  1  1  1 NREC =         1 INTLOC =    1
 II,JST,KST,LST =  2  1  1  1 NREC =         1 INTLOC =    2
 II,JST,KST,LST =  3  1  1  1 NREC =         1 INTLOC =   34
 II,JST,KST,LST =  4  1  1  1 NREC =         1 INTLOC =  145
 II,JST,KST,LST =  5  1  1  1 NREC =         1 INTLOC =  306
 II,JST,KST,LST =  6  1  1  1 NREC =         1 INTLOC = 2004
 II,JST,KST,LST =  7  1  1  1 NREC =         1 INTLOC = 2761
 II,JST,KST,LST =  8  1  1  1 NREC =         1 INTLOC = 8781
 II,JST,KST,LST =  9  1  1  1 NREC =         1 INTLOC =10268
 II,JST,KST,LST = 10  1  1  1 NREC =         2 INTLOC = 9347
 II,JST,KST,LST = 11  1  1  1 NREC =         2 INTLOC =13679
 II,JST,KST,LST = 12  1  1  1 NREC =         3 INTLOC = 1616
 II,JST,KST,LST = 13  1  1  1 NREC =         4 INTLOC =10847
 II,JST,KST,LST = 14  1  1  1 NREC =         5 INTLOC = 4643
 II,JST,KST,LST = 15  1  1  1 NREC =         6 INTLOC =  621
 II,JST,KST,LST = 16  1  1  1 NREC =         6 INTLOC =12881
 II,JST,KST,LST = 17  1  1  1 NREC =         7 INTLOC =11115
 II,JST,KST,LST = 18  1  1  1 NREC =         8 INTLOC =10641
 II,JST,KST,LST = 19  1  1  1 NREC =         9 INTLOC =10457
 II,JST,KST,LST = 20  1  1  1 NREC =        10 INTLOC =11667
 SCHWARZ INEQUALITY TEST SKIPPED        4554 INTEGRAL BLOCKS.
 TOTAL NUMBER OF NONZERO TWO-ELECTRON INTEGRALS =              162394
         11 INTEGRAL RECORDS WERE STORED ON DISK FILE  8.
  ...... END OF TWO-ELECTRON INTEGRALS .....
 STEP CPU TIME =     0.05 TOTAL CPU TIME =          0.1 (      0.0 MIN)
 TOTAL WALL CLOCK TIME=          0.2 SECONDS, CPU UTILIZATION IS    42.11%

          --------------------------
                 RHF SCF CALCULATION
          --------------------------

     NUCLEAR ENERGY =       196.2618784358
     MAXIT =  200     NPUNCH=    2
     EXTRAP=T  DAMP=F  SHIFT=F  RSTRCT=F  DIIS=F  DEM=F  SOSCF=T
     DENSITY MATRIX CONV=  1.00E-05
     SOSCF WILL OPTIMIZE     286 ORBITAL ROTATIONS, SOGTOL=   0.250
     MEMORY REQUIRED FOR RHF ITERS=     40209 WORDS.

 ITER EX DEM     TOTAL ENERGY        E CHANGE  DENSITY CHANGE     ORB. GRAD
   1  0  0     -265.0652823084  -265.0652823084   0.785703834   0.000000000
          ---------------START SECOND ORDER SCF---------------
   2  1  0     -265.5394223859    -0.4741400775   0.160737792   0.043130027
   3  2  0     -265.5643068977    -0.0248845118   0.088952395   0.018329947
   4  3  0     -265.5663426034    -0.0020357057   0.004643878   0.002648017
   5  4  0     -265.5664075454    -0.0000649420   0.002470925   0.000754766
   6  5  0     -265.5664151347    -0.0000075894   0.000339599   0.000108302
   7  6  0     -265.5664153306    -0.0000001958   0.000054214   0.000020182
   8  7  0     -265.5664153388    -0.0000000083   0.000012180   0.000005265
   9  8  0     -265.5664153392    -0.0000000003   0.000003771   0.000001393
  10  9  0     -265.5664153392    -0.0000000000   0.000000665   0.000000246

          -----------------
          DENSITY CONVERGED
          -----------------
     TIME TO FORM FOCK OPERATORS=       0.0 SECONDS (       0.0 SEC/ITER)
     TIME TO SOLVE SCF EQUATIONS=       0.0 SECONDS (       0.0 SEC/ITER)

 FINAL RHF ENERGY IS     -265.5664153392 AFTER  10 ITERATIONS

          ------------
          EIGENVECTORS
          ------------

                      1          2          3          4          5
                  -20.3859   -20.0180   -11.0078   -11.0066   -10.9979
                     A          A          A          A          A   
    1  O  1  S    0.000495   0.993938   0.000413   0.000028  -0.000003
    2  O  1  S    0.002253   0.027509  -0.004227  -0.000243   0.000198
    3  O  1  X   -0.000409   0.001846  -0.002446  -0.000138   0.000069
    4  O  1  Y    0.001226   0.002436   0.001232   0.000096   0.000056
    5  O  1  Z   -0.000573  -0.002656   0.000781   0.000028  -0.000077
    6  H  2  S   -0.006780  -0.008613  -0.001153  -0.000056  -0.000137
    7  C  3  S   -0.000030   0.000542   0.991430   0.033526   0.014857
    8  C  3  S    0.000198  -0.004380   0.036220   0.001363  -0.005241
    9  C  3  X   -0.000167   0.003566   0.001003  -0.000146  -0.000757
   10  C  3  Y    0.000198  -0.001319  -0.000268  -0.000060   0.003772
   11  C  3  Z   -0.000009  -0.001428  -0.000459   0.000127  -0.001791
   12  C  4  S   -0.000004  -0.000024  -0.013312  -0.016208   0.991709
   13  C  4  S    0.000031   0.000377  -0.006014  -0.006505   0.037377
   14  C  4  X   -0.000014  -0.000206   0.001017  -0.003679  -0.000009
   15  C  4  Y    0.000029   0.000185  -0.003868   0.001327  -0.000173
   16  C  4  Z   -0.000009   0.000017   0.001686   0.001498   0.000111
   17  C  5  S   -0.000001   0.000010  -0.033678   0.991227   0.016743
   18  C  5  S    0.000006  -0.000038  -0.001151   0.037889  -0.005176
   19  C  5  X   -0.000001   0.000043  -0.000060   0.000079   0.003801
   20  C  5  Y   -0.000000  -0.000110  -0.000197  -0.000028  -0.001450
   21  C  5  Z    0.000001   0.000039   0.000156  -0.000032  -0.001500
   22  H  6  S   -0.005354   0.000315   0.000045   0.000002   0.000006
   23  O  7  S    0.993812  -0.000934  -0.000053  -0.000002  -0.000004
   24  O  7  S    0.028870   0.002393   0.000410   0.000019   0.000037
   25  O  7  X   -0.000319   0.000743   0.000106   0.000005   0.000005
   26  O  7  Y    0.000792  -0.001611  -0.000290  -0.000013  -0.000023
   27  O  7  Z   -0.000101   0.000118   0.000055   0.000002   0.000006
   28  H  8  S   -0.005361   0.000354   0.000010   0.000000  -0.000003
   29  H  9  S    0.000102   0.000399  -0.007074  -0.000214  -0.000060
   30  H 10  S    0.000102   0.000393  -0.007079  -0.000214  -0.000060
   31  H 11  S    0.000004  -0.000082   0.000092   0.000182  -0.007015
   32  H 12  S    0.000004  -0.000082   0.000092   0.000182  -0.007013
   33  H 13  S   -0.000004  -0.000025   0.000264  -0.006981  -0.000077
   34  H 14  S   -0.000004  -0.000024   0.000264  -0.006981  -0.000077
   35  H 15  S   -0.000001  -0.000029   0.000085  -0.006983  -0.000040

                      6          7          8          9         10
                   -1.4087    -1.1575    -0.9717    -0.8361    -0.7461
                     A          A          A          A          A   
    1  O  1  S   -0.038827  -0.208536   0.043340   0.026728  -0.002096
    2  O  1  S    0.121716   0.736013  -0.163092  -0.102788   0.006784
    3  O  1  X   -0.001739   0.048820   0.028550   0.103142   0.041041
    4  O  1  Y    0.033822   0.061418  -0.051294  -0.121795  -0.011920
    5  O  1  Z   -0.017850  -0.067655   0.012800   0.007491  -0.013786
    6  H  2  S    0.095753   0.161441  -0.079236  -0.182147  -0.023351
    7  C  3  S   -0.008074  -0.090269  -0.075514  -0.140563  -0.017323
    8  C  3  S    0.017241   0.236522   0.202992   0.415334   0.057080
    9  C  3  X   -0.007735  -0.081186   0.055328   0.026176  -0.009869
   10  C  3  Y    0.004119   0.034990  -0.073805  -0.022680   0.046605
   11  C  3  Z    0.002532   0.029662   0.009831  -0.002760  -0.019507
   12  C  4  S   -0.001104  -0.027201  -0.158555  -0.040372   0.043225
   13  C  4  S    0.002476   0.067262   0.429068   0.118954  -0.132547
   14  C  4  X   -0.000592  -0.008599   0.050880  -0.095617   0.024325
   15  C  4  Y    0.001303   0.022796   0.000606   0.111715   0.011772
   16  C  4  Z   -0.000417  -0.008302  -0.031998  -0.007358  -0.021828
   17  C  5  S   -0.000141  -0.007849  -0.147276   0.140583  -0.028294
   18  C  5  S    0.000341   0.019831   0.401438  -0.411114   0.086912
   19  C  5  X   -0.000161  -0.006292  -0.054707  -0.045314   0.041766
   20  C  5  Y    0.000098   0.003762   0.025960   0.033877  -0.009848
   21  C  5  Z    0.000042   0.001669   0.018584   0.007900  -0.019979
   22  H  6  S    0.119322  -0.064725   0.026602   0.065873  -0.367907
   23  O  7  S   -0.232083   0.052206  -0.008323  -0.001652   0.002373
   24  O  7  S    0.829857  -0.210350   0.036578   0.007243  -0.011482
   25  O  7  X   -0.011142   0.043804  -0.024498  -0.068654   0.494737
   26  O  7  Y    0.028463  -0.105350   0.065522   0.217861   0.212230
   27  O  7  Z   -0.004316   0.021347  -0.014002  -0.049476  -0.298648
   28  H  8  S    0.120464  -0.068253   0.031629   0.099010   0.398370
   29  H  9  S    0.001663   0.036131   0.052478   0.125814   0.028806
   30  H 10  S    0.001713   0.036269   0.052628   0.126136   0.031402
   31  H 11  S    0.000324   0.012806   0.098836   0.035335  -0.055969
   32  H 12  S    0.000320   0.012796   0.098751   0.035311  -0.056290
   33  H 13  S    0.000045   0.003607   0.098509  -0.129468   0.041537
   34  H 14  S    0.000044   0.003608   0.098569  -0.129532   0.041700
   35  H 15  S    0.000029   0.002789   0.094216  -0.145624   0.034798

                     11         12         13         14         15
                   -0.7360    -0.6961    -0.5752    -0.5242    -0.5188
                     A          A          A          A          A   
    1  O  1  S    0.032982  -0.097091  -0.000244  -0.003539  -0.024727
    2  O  1  S   -0.144217   0.422618   0.001407   0.019388   0.115294
    3  O  1  X   -0.082717   0.005460   0.056249   0.009775  -0.083809
    4  O  1  Y    0.096422  -0.121536   0.054113   0.048663  -0.041917
    5  O  1  Z   -0.001538   0.064933   0.091210   0.073606   0.057984
    6  H  2  S    0.183208  -0.177505  -0.002332  -0.001180   0.003815
    7  C  3  S    0.058861   0.093245   0.000106   0.004271   0.025337
    8  C  3  S   -0.195784  -0.274014  -0.000358  -0.015936  -0.085502
    9  C  3  X    0.044639  -0.197200   0.139806   0.039183   0.015184
   10  C  3  Y   -0.111292  -0.032169   0.134743  -0.014187  -0.214274
   11  C  3  Z    0.040459   0.140391   0.225040   0.037182   0.107018
   12  C  4  S   -0.128332  -0.046603   0.000071  -0.003470  -0.017895
   13  C  4  S    0.396342   0.146290  -0.000254   0.012558   0.065977
   14  C  4  X   -0.061637  -0.048337   0.166862  -0.006087   0.046185
   15  C  4  Y   -0.053048  -0.097755   0.160669   0.006847   0.195800
   16  C  4  Z    0.070661   0.088330   0.268011  -0.059612  -0.136395
   17  C  5  S    0.078559   0.003618  -0.000003   0.000332  -0.001148
   18  C  5  S   -0.242704  -0.011881   0.000001  -0.000611   0.006247
   19  C  5  X   -0.129733  -0.032151   0.135947  -0.042355   0.014248
   20  C  5  Y    0.027864  -0.041945   0.130422   0.031926   0.412941
   21  C  5  Z    0.064272   0.045008   0.217704  -0.091473  -0.237795
   22  H  6  S   -0.224949   0.109664   0.002545   0.006058  -0.007083
   23  O  7  S   -0.015741   0.027276   0.000297   0.002606   0.001124
   24  O  7  S    0.077853  -0.137542  -0.001180  -0.013782  -0.006350
   25  O  7  X    0.282379  -0.128695   0.024586   0.377622  -0.053284
   26  O  7  Y   -0.270604   0.421807   0.020883   0.304826  -0.029603
   27  O  7  Z   -0.033119  -0.078790   0.060534   0.837217  -0.136446
   28  H  8  S   -0.008286   0.179513  -0.000938   0.009635   0.013043
   29  H  9  S   -0.083537  -0.189090  -0.199911  -0.036600  -0.106607
   30  H 10  S   -0.082399  -0.191131   0.199974   0.018188  -0.119585
   31  H 11  S    0.171156   0.102416   0.226990  -0.043802  -0.069723
   32  H 12  S    0.170716   0.102765  -0.226845   0.016978  -0.079817
   33  H 13  S   -0.122473  -0.034515  -0.195396   0.077543   0.173067
   34  H 14  S   -0.122440  -0.034731   0.195560  -0.028077   0.193391
   35  H 15  S   -0.097961   0.028201   0.000149  -0.065723  -0.408598

                     16         17         18         19         20
                   -0.4870    -0.4562    -0.4185    -0.4140    -0.3457
                     A          A          A          A          A   
    1  O  1  S   -0.000072   0.035943   0.010314  -0.000201   0.050583
    2  O  1  S    0.000655  -0.170267  -0.050733   0.000913  -0.258249
    3  O  1  X   -0.096037   0.138320   0.034690   0.065758   0.490761
    4  O  1  Y   -0.077768  -0.188163   0.143519   0.062644  -0.192606
    5  O  1  Z   -0.145565   0.033425  -0.114537   0.099126  -0.170512
    6  H  2  S    0.004074  -0.049096   0.030207  -0.001634  -0.113324
    7  C  3  S    0.000437  -0.035337   0.024356   0.000797  -0.023458
    8  C  3  S   -0.002131   0.134241  -0.097450  -0.002891   0.124587
    9  C  3  X   -0.177225  -0.160371  -0.011682   0.100630  -0.423059
   10  C  3  Y   -0.174244  -0.143125   0.328441   0.107775   0.225550
   11  C  3  Z   -0.303412   0.176054  -0.193923   0.160325   0.121015
   12  C  4  S   -0.000374   0.017241   0.008746   0.000085   0.004298
   13  C  4  S    0.001322  -0.065876  -0.044223  -0.000479  -0.009871
   14  C  4  X    0.019082  -0.386247  -0.169278  -0.206680   0.196047
   15  C  4  Y    0.006601   0.209991  -0.292317  -0.208589  -0.162683
   16  C  4  Z    0.018113   0.109145   0.292339  -0.328002  -0.021557
   17  C  5  S    0.000086   0.010714   0.011035  -0.000045  -0.024563
   18  C  5  S   -0.000148  -0.048292  -0.046814   0.000155   0.099059
   19  C  5  X    0.180161   0.398720   0.168619   0.126270  -0.213892
   20  C  5  Y    0.180740  -0.160981   0.171836   0.128577   0.149993
   21  C  5  Z    0.305421  -0.140142  -0.216247   0.201469   0.043373
   22  H  6  S    0.000202  -0.072600   0.041749   0.002282  -0.058792
   23  O  7  S    0.000867  -0.034069   0.016237   0.000465  -0.039893
   24  O  7  S   -0.005246   0.183897  -0.088498  -0.002120   0.221679
   25  O  7  X    0.064967   0.108336  -0.049410  -0.017589   0.091434
   26  O  7  Y    0.057189  -0.213894   0.095750  -0.010124  -0.214781
   27  O  7  Z    0.141893   0.072528  -0.014149  -0.033462   0.066894
   28  H  8  S    0.004580  -0.089008   0.031529  -0.000245  -0.109002
   29  H  9  S    0.288558  -0.081542   0.129988  -0.195279  -0.099258
   30  H 10  S   -0.279962  -0.093353   0.124895   0.200384  -0.112510
   31  H 11  S    0.016827   0.076961   0.243547  -0.368303  -0.050336
   32  H 12  S   -0.018294   0.083547   0.228886   0.375864  -0.055359
   33  H 13  S   -0.298822   0.110603   0.189058  -0.245862  -0.010027
   34  H 14  S    0.291352   0.124867   0.178286   0.251547  -0.010843
   35  H 15  S    0.000112   0.140826  -0.245072  -0.007207  -0.144905

                     21         22         23         24         25
                   -0.2415    -0.2212     0.4805     0.6381     0.6661
                     A          A          A          A          A   
    1  O  1  S   -0.047535   0.002046  -0.031033  -0.013403  -0.011641
    2  O  1  S    0.251056  -0.010594   0.185562   0.078052   0.071493
    3  O  1  X   -0.183549   0.459973   0.024081   0.079901   0.108581
    4  O  1  Y   -0.562752   0.494822   0.144362  -0.038039  -0.001635
    5  O  1  Z    0.567173   0.672334  -0.101184  -0.031821   0.022742
    6  H  2  S   -0.229369   0.014716  -0.157843  -0.012105  -0.032991
    7  C  3  S    0.013093  -0.000376   0.005897   0.004068   0.000866
    8  C  3  S   -0.056909   0.001590  -0.020957  -0.008349   0.010553
    9  C  3  X    0.069182  -0.046333   0.103945   0.122908  -0.098168
   10  C  3  Y    0.082980  -0.056061   0.000094  -0.008417  -0.173375
   11  C  3  Z   -0.108682  -0.071867  -0.058498  -0.063218  -0.402483
   12  C  4  S    0.027142  -0.002696  -0.005297  -0.001609  -0.003679
   13  C  4  S   -0.115565   0.011431   0.025769   0.005377   0.016225
   14  C  4  X    0.054412  -0.002710   0.023865   0.086292  -0.191016
   15  C  4  Y   -0.206174   0.023598   0.019627  -0.005379  -0.291610
   16  C  4  Z    0.091634  -0.002232  -0.025392  -0.043973  -0.568793
   17  C  5  S   -0.004621   0.000802   0.006641   0.010772   0.011433
   18  C  5  S    0.020483  -0.003493  -0.035833  -0.061089  -0.064694
   19  C  5  X   -0.056353   0.015691   0.039410   0.080494  -0.163190
   20  C  5  Y    0.043963   0.003075  -0.002664   0.010884  -0.236199
   21  C  5  Z    0.010983   0.011839  -0.022821  -0.052601  -0.530616
   22  H  6  S   -0.113674   0.017129  -0.788721   0.851641  -0.006736
   23  O  7  S   -0.054248   0.006834  -0.141846   0.001992   0.000178
   24  O  7  S    0.314302  -0.037373   0.941665  -0.013850  -0.001657
   25  O  7  X    0.118160  -0.044030  -0.221764   0.810996  -0.013467
   26  O  7  Y   -0.263763   0.008722   0.530980   0.254629  -0.039958
   27  O  7  Z    0.038063  -0.068960  -0.078137  -0.456180   0.016793
   28  H  8  S   -0.103155   0.010719  -0.789919  -0.812201   0.042400
   29  H  9  S    0.164061   0.224584  -0.031949  -0.044666  -0.429753
   30  H 10  S    0.118413  -0.247040  -0.036178  -0.052631   0.292726
   31  H 11  S    0.042258   0.029279   0.019480   0.044787   0.659305
   32  H 12  S    0.034890  -0.034036   0.022185   0.054228  -0.521700
   33  H 13  S    0.010573  -0.007165  -0.007013  -0.020912  -0.548345
   34  H 14  S    0.011574   0.005282  -0.007305  -0.026409   0.447661
   35  H 15  S   -0.057223   0.006281   0.024140   0.047704   0.074484

                     26         27         28         29         30
                    0.6668     0.6876     0.7335     0.7680     0.7942
                     A          A          A          A          A   
    1  O  1  S   -0.050149   0.017136   0.030931   0.000585  -0.004184
    2  O  1  S    0.307791  -0.102800  -0.186274  -0.003790   0.038214
    3  O  1  X    0.330302  -0.152917  -0.285150  -0.057496  -0.053743
    4  O  1  Y   -0.157786  -0.003690   0.037477  -0.056679  -0.019679
    5  O  1  Z   -0.133249   0.097934   0.155551  -0.088716   0.044594
    6  H  2  S   -0.136139   0.003592   0.015696   0.004588  -0.076820
    7  C  3  S    0.002361   0.067002  -0.042431  -0.001290  -0.137222
    8  C  3  S    0.055494  -0.406854   0.240516   0.007842   0.887672
    9  C  3  X    0.504087  -0.295945  -0.204762   0.353608   0.419616
   10  C  3  Y    0.144170   0.546325   0.488420   0.340459   0.373274
   11  C  3  Z   -0.278238  -0.143737  -0.163441   0.564973  -0.488729
   12  C  4  S   -0.016615   0.015687  -0.126022   0.000638  -0.004876
   13  C  4  S    0.073979  -0.107844   0.783718  -0.003928   0.048211
   14  C  4  X    0.589686  -0.336509  -0.042466   0.098875  -0.403636
   15  C  4  Y    0.085950   0.678940   0.051835   0.091640   0.063485
   16  C  4  Z   -0.226866  -0.198269  -0.006343   0.154257   0.211640
   17  C  5  S    0.049915  -0.034552  -0.127081   0.000797   0.033200
   18  C  5  S   -0.281972   0.189875   0.818432  -0.005089  -0.223591
   19  C  5  X    0.568985  -0.320666   0.550662  -0.379468  -0.424409
   20  C  5  Y    0.193557   0.641036  -0.242477  -0.362327   0.003821
   21  C  5  Z   -0.296642  -0.184985  -0.200935  -0.606812   0.266475
   22  H  6  S   -0.053847   0.007858   0.003757  -0.001088   0.018630
   23  O  7  S    0.002512  -0.001721  -0.000703   0.000451  -0.001554
   24  O  7  S   -0.020195   0.012790   0.006589  -0.003517   0.010491
   25  O  7  X   -0.081627   0.015482   0.012330  -0.000006   0.018027
   26  O  7  Y   -0.188437   0.023458   0.032248   0.000244  -0.054698
   27  O  7  Z    0.105078  -0.015325  -0.017761   0.005637   0.010691
   28  H  8  S    0.231875  -0.040564  -0.038420   0.005428   0.033969
   29  H  9  S   -0.231755   0.077006  -0.206185   0.586350  -0.749882
   30  H 10  S   -0.388266   0.077696  -0.208011  -0.595189  -0.745367
   31  H 11  S    0.175538   0.194472  -0.326571  -0.150138  -0.175278
   32  H 12  S    0.438532   0.193405  -0.328729   0.154816  -0.177448
   33  H 13  S   -0.118315  -0.247933  -0.508555  -0.616510   0.340313
   34  H 14  S   -0.342381  -0.247328  -0.504668   0.620722   0.335540
   35  H 15  S    0.332564   0.644844  -0.558905   0.003540   0.062626

                     31         32         33         34         35
                    0.8010     0.8127     0.8341     0.8650     1.2871
                     A          A          A          A          A   
    1  O  1  S   -0.016700  -0.006521   0.078835   0.000426   0.087379
    2  O  1  S    0.105122   0.039096  -0.492929  -0.002429  -0.653825
    3  O  1  X    0.162231   0.042963  -0.542277   0.050979   0.298596
    4  O  1  Y    0.003112  -0.014909   0.180609   0.059419  -0.704948
    5  O  1  Z   -0.103344  -0.017899   0.231928   0.092942   0.251305
    6  H  2  S    0.010910  -0.007008   0.163878  -0.003103   1.575984
    7  C  3  S   -0.058523   0.034382  -0.178704  -0.001798   0.014732
    8  C  3  S    0.381507  -0.201857   1.037496   0.010552  -0.086600
    9  C  3  X    0.358408  -0.032614  -0.412128  -0.352901   0.135088
   10  C  3  Y   -0.503000  -0.031954  -0.065815  -0.336301   0.001257
   11  C  3  Z    0.079605   0.039304   0.299849  -0.556888  -0.091601
   12  C  4  S    0.111328  -0.170047   0.077692   0.000855  -0.003779
   13  C  4  S   -0.660848   1.076082  -0.486101  -0.005342   0.032597
   14  C  4  X   -0.404636  -0.094290   0.461762   0.425339  -0.000214
   15  C  4  Y   -0.368722  -0.424027  -0.414156   0.402630   0.014830
   16  C  4  Z    0.472468   0.314589  -0.052543   0.677085  -0.007362
   17  C  5  S   -0.157190   0.118850   0.058057   0.000179   0.002323
   18  C  5  S    0.996328  -0.747941  -0.375967  -0.001203  -0.014555
   19  C  5  X   -0.125956   0.137968   0.118858  -0.236069   0.005322
   20  C  5  Y    0.505640   0.420662   0.262225  -0.225506  -0.011453
   21  C  5  Z   -0.225223  -0.339522  -0.221122  -0.381072   0.003456
   22  H  6  S   -0.001064   0.000961  -0.027752   0.000266  -0.162099
   23  O  7  S    0.001231  -0.000342   0.005634  -0.000223   0.067007
   24  O  7  S   -0.009686   0.002314  -0.035770   0.001969  -0.505399
   25  O  7  X   -0.005921   0.000606  -0.021423  -0.000892  -0.279955
   26  O  7  Y   -0.005174  -0.004602   0.124465  -0.000225   0.622331
   27  O  7  Z    0.004781   0.001492  -0.036061  -0.004279  -0.080150
   28  H  8  S    0.015435   0.001210  -0.067469  -0.003033  -0.147319
   29  H  9  S   -0.080564   0.130643  -0.264287  -0.479271  -0.061973
   30  H 10  S   -0.081924   0.130579  -0.266261   0.473713  -0.054636
   31  H 11  S   -0.045825  -0.687993   0.250682  -0.586218  -0.006477
   32  H 12  S   -0.046906  -0.686535   0.237262   0.590650  -0.005339
   33  H 13  S   -0.564941   0.068784   0.001972  -0.308632   0.007232
   34  H 14  S   -0.564171   0.069976  -0.008467   0.307513   0.007055
   35  H 15  S    0.069042   0.737113   0.385298   0.002294  -0.003065
 ...... END OF RHF CALCULATION ......
 STEP CPU TIME =     0.02 TOTAL CPU TIME =          0.1 (      0.0 MIN)
 TOTAL WALL CLOCK TIME=          0.2 SECONDS, CPU UTILIZATION IS    45.45%

     ----------------------------------------------------------------
     PROPERTY VALUES FOR THE RHF   SELF-CONSISTENT FIELD WAVEFUNCTION
     ----------------------------------------------------------------

          -----------------
          ENERGY COMPONENTS
          -----------------

         WAVEFUNCTION NORMALIZATION =       1.0000000000

                ONE ELECTRON ENERGY =    -755.3155047323
                TWO ELECTRON ENERGY =     293.4872109572
           NUCLEAR REPULSION ENERGY =     196.2618784358
                                      ------------------
                       TOTAL ENERGY =    -265.5664153392

 ELECTRON-ELECTRON POTENTIAL ENERGY =     293.4872109572
  NUCLEUS-ELECTRON POTENTIAL ENERGY =   -1019.7183076608
   NUCLEUS-NUCLEUS POTENTIAL ENERGY =     196.2618784358
                                      ------------------
             TOTAL POTENTIAL ENERGY =    -529.9692182678
               TOTAL KINETIC ENERGY =     264.4028029286
                 VIRIAL RATIO (V/T) =       2.0044009080

          ---------------------------------------
          MULLIKEN AND LOWDIN POPULATION ANALYSES
          ---------------------------------------

     ATOMIC MULLIKEN POPULATION IN EACH MOLECULAR ORBITAL

                      1          2          3          4          5

                  2.000000   2.000000   2.000000   2.000000   2.000000

    1             0.000014   2.001528  -0.000368  -0.000001   0.000000
    2            -0.000715  -0.001008  -0.000020  -0.000000  -0.000000
    3             0.000000  -0.000547   2.000451   0.002290  -0.000373
    4             0.000000   0.000003  -0.000395  -0.000237   2.002610
    5            -0.000000  -0.000000   0.002306   2.000873  -0.000265
    6            -0.000626   0.000001   0.000000   0.000000   0.000000
    7             2.001953   0.000016   0.000000   0.000000  -0.000000
    8            -0.000627   0.000001   0.000000   0.000000  -0.000000
    9             0.000000   0.000004  -0.000987  -0.000002  -0.000001
   10             0.000000   0.000004  -0.000987  -0.000002  -0.000001
   11             0.000000  -0.000000   0.000001   0.000002  -0.000984
   12             0.000000  -0.000000   0.000001   0.000002  -0.000984
   13            -0.000000  -0.000000  -0.000001  -0.000976  -0.000001
   14            -0.000000  -0.000000  -0.000001  -0.000976  -0.000001
   15             0.000000  -0.000000  -0.000000  -0.000975  -0.000001

                      6          7          8          9         10

                  2.000000   2.000000   2.000000   2.000000   2.000000

    1             0.059787   1.305844   0.063785   0.123029   0.007821
    2             0.106408   0.160617   0.024528   0.099741   0.001422
    3             0.003536   0.300515   0.212727   0.462117   0.018355
    4             0.000084   0.029479   0.670961   0.160521   0.046093
    5             0.000001   0.002559   0.587718   0.468891   0.027880
    6             0.131036   0.019489   0.002344   0.012070   0.356486
    7             1.566527   0.124642   0.019611   0.165226   1.069350
    8             0.132422   0.021536   0.003423   0.028354   0.414998
    9             0.000092   0.015291   0.022169   0.084930   0.003700
   10             0.000099   0.015333   0.022260   0.085248   0.004396
   11             0.000003   0.002113   0.076648   0.006872   0.014200
   12             0.000003   0.002111   0.076551   0.006865   0.014376
   13             0.000000   0.000187   0.074546   0.089954   0.007758
   14             0.000000   0.000187   0.074606   0.090011   0.007823
   15             0.000000   0.000097   0.068124   0.116171   0.005342

                     11         12         13         14         15

                  2.000000   2.000000   2.000000   2.000000   2.000000

    1             0.089024   0.303301   0.043447   0.021029   0.050856
    2             0.086823   0.086992   0.000010   0.000001  -0.000071
    3             0.140752   0.418858   0.333344   0.009899   0.195881
    4             0.407928   0.135336   0.473159   0.012528   0.204415
    5             0.233622   0.023236   0.306487   0.037037   0.743894
    6             0.130504   0.029969   0.000014   0.000089   0.000092
    7             0.418824   0.524026   0.009910   1.876929   0.044610
    8             0.000184   0.078465   0.000001   0.000203   0.000288
    9             0.029908   0.148692   0.128416   0.003575   0.032057
   10             0.029078   0.151340   0.128156   0.000863   0.040014
   11             0.130330   0.042909   0.167453   0.005734   0.015191
   12             0.129708   0.043227   0.167326   0.000794   0.019726
   13             0.066020   0.005134   0.121062   0.016824   0.082274
   14             0.065951   0.005198   0.121216   0.002243   0.102817
   15             0.041345   0.003318   0.000000   0.012253   0.467956

                     16         17         18         19         20

                  2.000000   2.000000   2.000000   2.000000   2.000000

    1             0.098420   0.174428   0.091128   0.044353   0.828597
    2             0.000036   0.005113   0.002437   0.000003   0.022079
    3             0.479077   0.259407   0.401065   0.125209   0.555517
    4             0.002244   0.608105   0.538147   0.523496   0.156669
    5             0.487551   0.587709   0.282943   0.193682   0.177289
    6             0.000000   0.011214   0.003483   0.000009   0.007379
    7             0.053501   0.138014   0.025603   0.002780   0.123159
    8             0.000038   0.016343   0.002176  -0.000000   0.021943
    9             0.219299   0.017244   0.042142   0.087991   0.021864
   10             0.205604   0.022523   0.038947   0.092567   0.027911
   11             0.000760   0.016456   0.146463   0.316968   0.005664
   12             0.000906   0.019276   0.129777   0.330512   0.006794
   13             0.232125   0.032058   0.084665   0.137948   0.000343
   14             0.220439   0.040542   0.075405   0.144364   0.000390
   15             0.000000   0.051568   0.135620   0.000119   0.044404

                     21         22

                  2.000000   2.000000

    1             1.434040   1.760356
    2             0.073657   0.000327
    3             0.059514   0.030917
    4             0.124930   0.001228
    5             0.011420   0.000813
    6             0.023130   0.000486
    7             0.168420   0.011130
    8             0.019249   0.000200
    9             0.048742   0.086546
   10             0.025507   0.104786
   11             0.003103   0.001280
   12             0.002153   0.001758
   13             0.000216   0.000070
   14             0.000252   0.000034
   15             0.005667   0.000067

               ----- POPULATIONS IN EACH AO -----
                             MULLIKEN      LOWDIN
              1  O  1  S      1.99745     1.99573
              2  O  1  S      1.80375     1.68786
              3  O  1  X      1.30991     1.33884
              4  O  1  Y      1.57954     1.60349
              5  O  1  Z      1.80978     1.81964
              6  H  2  S      0.66838     0.77796
              7  C  3  S      1.99231     1.98486
              8  C  3  S      1.17072     1.04001
              9  C  3  X      0.93201     0.96341
             10  C  3  Y      0.95340     0.99004
             11  C  3  Z      0.96007     0.99175
             12  C  4  S      1.99202     1.98509
             13  C  4  S      1.17429     1.02317
             14  C  4  X      0.95288     0.98923
             15  C  4  Y      0.98433     1.01872
             16  C  4  Z      0.99379     1.02126
             17  C  5  S      1.99204     1.98539
             18  C  5  S      1.18331     1.01502
             19  C  5  X      0.99099     1.02439
             20  C  5  Y      1.00445     1.03125
             21  C  5  Z      1.00486     1.03193
             22  H  6  S      0.72717     0.79460
             23  O  7  S      1.99691     1.99468
             24  O  7  S      1.75597     1.55480
             25  O  7  X      1.33709     1.34326
             26  O  7  Y      1.45567     1.45359
             27  O  7  Z      1.79859     1.80073
             28  H  8  S      0.73920     0.80486
             29  H  9  S      0.99167     1.01742
             30  H 10  S      0.99365     1.01900
             31  H 11  S      0.95116     0.98087
             32  H 12  S      0.95088     0.98064
             33  H 13  S      0.95021     0.97849
             34  H 14  S      0.95050     0.97871
             35  H 15  S      0.95107     0.97929

          ----- MULLIKEN ATOMIC OVERLAP POPULATIONS -----
          (OFF-DIAGONAL ELEMENTS NEED TO BE MULTIPLIED BY 2)

             1           2           3           4           5

    1    8.1256550
    2    0.2548510   0.4189205
    3    0.2688279  -0.0322660   4.7382785
    4   -0.0186527   0.0017420   0.3597094   4.7417703
    5    0.0002574  -0.0000270  -0.0243312   0.3602858   4.7373971
    6    0.0043557  -0.0099937  -0.0000543   0.0000032  -0.0000000
    7   -0.1023308   0.0465980   0.0029229  -0.0000240   0.0000000
    8    0.0045804  -0.0075762  -0.0006036   0.0000084  -0.0000001
    9   -0.0179005  -0.0020735   0.3719350  -0.0258708  -0.0022434
   10   -0.0181817  -0.0018404   0.3716694  -0.0260165  -0.0022256
   11   -0.0005195   0.0000232  -0.0218447   0.3842179  -0.0228232
   12   -0.0005272   0.0000234  -0.0218267   0.3842515  -0.0228078
   13    0.0000045  -0.0000010  -0.0026389  -0.0215523   0.3843592
   14    0.0000045  -0.0000010  -0.0026397  -0.0215591   0.3843203
   15   -0.0000049   0.0000006   0.0013763  -0.0210088   0.3834835

             6           7           8           9          10

    6    0.4905403
    7    0.2736261   7.8545503
    8   -0.0312867   0.2684928   0.5056662
    9   -0.0000099   0.0001834  -0.0000347   0.6966508
   10   -0.0000129   0.0002139  -0.0000517  -0.0287500   0.6990617
   11    0.0000001  -0.0000010   0.0000002   0.0019330  -0.0024925
   12    0.0000001  -0.0000009   0.0000002  -0.0024848   0.0019323
   13   -0.0000000   0.0000000  -0.0000000   0.0003178   0.0000141
   14   -0.0000000   0.0000000  -0.0000000   0.0000134   0.0003198
   15    0.0000000  -0.0000000   0.0000000   0.0000072   0.0000064

            11          12          13          14          15

   11    0.6375923
   12   -0.0222968   0.6372416
   13    0.0019412  -0.0023689   0.6331426
   14   -0.0023684   0.0019409  -0.0215498   0.6334862
   15   -0.0021973  -0.0021967  -0.0214620  -0.0214688   0.6345393

          TOTAL MULLIKEN AND LOWDIN ATOMIC POPULATIONS
       ATOM         MULL.POP.    CHARGE          LOW.POP.     CHARGE
    1 O             8.500419   -0.500419         8.445573   -0.445573
    2 H             0.668380    0.331620         0.777963    0.222037
    3 C             6.008514   -0.008514         5.970061    0.029939
    4 C             6.097304   -0.097304         6.037478   -0.037478
    5 C             6.175645   -0.175645         6.087981   -0.087981
    6 H             0.727168    0.272832         0.794596    0.205404
    7 O             8.344231   -0.344231         8.147065   -0.147065
    8 H             0.739195    0.260805         0.804860    0.195140
    9 H             0.991673    0.008327         1.017420   -0.017420
   10 H             0.993647    0.006353         1.019003   -0.019003
   11 H             0.951165    0.048835         0.980871    0.019129
   12 H             0.950880    0.049120         0.980642    0.019358
   13 H             0.950207    0.049793         0.978488    0.021512
   14 H             0.950498    0.049502         0.978711    0.021289
   15 H             0.951075    0.048925         0.979288    0.020712

          -------------------------------
          BOND ORDER AND VALENCE ANALYSIS     BOND ORDER THRESHOLD=0.050
          -------------------------------

                   BOND                       BOND                       BOND
  ATOM PAIR DIST  ORDER      ATOM PAIR DIST  ORDER      ATOM PAIR DIST  ORDER
    1   2  0.967  0.609        1   3  1.429  1.028        1   7  1.961  0.076
    2   7  1.010  0.263        3   4  1.530  0.984        3   9  1.090  0.963
    3  10  1.090  0.963        4   5  1.530  1.001        4  11  1.090  0.976
    4  12  1.090  0.976        5  13  1.090  0.984        5  14  1.090  0.984
    5  15  1.090  0.984        6   7  0.967  0.898        7   8  0.967  0.903

                       TOTAL       BONDED        FREE
      ATOM            VALENCE     VALENCE     VALENCE
    1 O                 1.805       1.805       0.000
    2 H                 0.890       0.890       0.000
    3 C                 3.967       3.967      -0.000
    4 C                 3.967       3.967      -0.000
    5 C                 3.969       3.969       0.000
    6 H                 0.926       0.926       0.000
    7 O                 2.145       2.145      -0.000
    8 H                 0.932       0.932       0.000
    9 H                 1.000       1.000       0.000
   10 H                 1.000       1.000      -0.000
   11 H                 0.998       0.998       0.000
   12 H                 0.998       0.998      -0.000
   13 H                 0.998       0.998       0.000
   14 H                 0.998       0.998       0.000
   15 H                 0.998       0.998      -0.000

          ---------------------
          ELECTROSTATIC MOMENTS
          ---------------------

 POINT   1           X           Y           Z (BOHR)    CHARGE
                -6.123686    1.192715   -0.119987       -0.00 (A.U.)
         DX          DY          DZ         /D/  (DEBYE)
    -1.761471    4.975536   -1.439097    5.470808
 ...... END OF PROPERTY EVALUATION ......
 STEP CPU TIME =     0.00 TOTAL CPU TIME =          0.1 (      0.0 MIN)
 TOTAL WALL CLOCK TIME=          0.2 SECONDS, CPU UTILIZATION IS    45.45%

 BEGINNING ONE ELECTRON GRADIENT...
 ..... END OF 1-ELECTRON GRADIENT ......
 STEP CPU TIME =     0.01 TOTAL CPU TIME =          0.1 (      0.0 MIN)
 TOTAL WALL CLOCK TIME=          0.2 SECONDS, CPU UTILIZATION IS    45.83%

          ----------------------
          GRADIENT OF THE ENERGY
          ----------------------
 THE COARSE/FINE SCHWARZ SCREENINGS SKIPPED         4554/        2785 BLOCKS.
 THE NUMBER OF GRADIENT INTEGRAL BLOCKS COMPUTED WAS     14776
 ...... END OF 2-ELECTRON GRADIENT ......
 STEP CPU TIME =     0.07 TOTAL CPU TIME =          0.2 (      0.0 MIN)
 TOTAL WALL CLOCK TIME=          0.3 SECONDS, CPU UTILIZATION IS    60.00%

          NSERCH=  0     ENERGY=    -265.5664153

                                 -----------------------
                                 GRADIENT (HARTREE/BOHR)
                                 -----------------------
        ATOM     ZNUC       DE/DX         DE/DY         DE/DZ
 --------------------------------------------------------------
    1  O            8.0    -0.0591462     0.1768768    -0.0560980
    2  H            1.0    -0.0580950     0.1054747    -0.0072856
    3  C            6.0     0.0529811    -0.0271189    -0.0155120
    4  C            6.0    -0.0064590     0.0039043     0.0016449
    5  C            6.0    -0.0027197     0.0083396    -0.0033773
    6  H            1.0     0.0082518    -0.0148367     0.0011878
    7  O            8.0     0.0898178    -0.2360570     0.0584482
    8  H            1.0     0.0076389    -0.0211343     0.0039196
    9  H            1.0    -0.0117503     0.0018508     0.0098882
   10  H            1.0    -0.0143557    -0.0008982     0.0055176
   11  H            1.0     0.0038899     0.0019476     0.0023106
   12  H            1.0    -0.0003719    -0.0021757    -0.0044376
   13  H            1.0    -0.0046349     0.0011197    -0.0040800
   14  H            1.0    -0.0001128     0.0054796     0.0031389
   15  H            1.0    -0.0049340    -0.0027724     0.0047346

          MAXIMUM GRADIENT = 0.2360570    RMS GRADIENT = 0.0527237

 NSERCH:   0  E=     -265.5664153392  GRAD. MAX=  0.2360570  R.M.S.=  0.0527237

          FORCE CONSTANT MATRIX NOT UPDATED --- TAKING FIRST STEP
          MIN SEARCH, CORRECT HESSIAN, TRYING PURE NR STEP
               NR STEP HAS LENGTH         =   8.874805
          TRIM/QA LAMBDA FOR NON-TS MODES =  -0.51387956
          TRIM/QA STEP HAS LENGTH         =   0.300000
          RADIUS OF STEP TAKEN=   0.30000  CURRENT TRUST RADIUS=   0.30000

 BEGINNING GEOMETRY SEARCH POINT NSERCH=   1 ...

 COORDINATES OF ALL ATOMS ARE (ANGS)
   ATOM   CHARGE       X              Y              Z
 ------------------------------------------------------------
 O           8.0  -4.1497969895   0.9868505176   0.2424817152
 H           1.0  -4.3874671961   1.8974005296  -0.1503008715
 C           6.0  -2.9212781862   0.5993826648  -0.2824776362
 C           6.0  -2.5973242822  -0.7728693685   0.3394700367
 C           6.0  -1.2610588033  -1.2962763340  -0.1797665055
 H           1.0  -5.6949593115   3.1202336406   0.0134687122
 O           8.0  -4.8351870783   2.9497917775  -0.3385915839
 H           1.0  -4.3271040052   3.5998992786  -0.7742660296
 H           1.0  -2.9415614579   0.4858179174  -1.3751887438
 H           1.0  -2.1049058361   1.2915391333  -0.0318833968
 H           1.0  -2.5569460470  -0.6703390887   1.4244409924
 H           1.0  -3.3925241151  -1.4743125825   0.0842743102
 H           1.0  -1.3080923100  -1.3960308034  -1.2628196254
 H           1.0  -0.4720907410  -0.5917849676   0.0779140890
 H           1.0  -1.0439936405  -2.2619223147   0.2640945372

          INTERNUCLEAR DISTANCES (ANGS.)
          ------------------------------

                1 O          2 H          3 C          4 C          5 C     

   1 O       0.0000000    1.0197385 *  1.3910327 *  2.3486576 *  3.7061800  
   2 H       1.0197385 *  0.0000000    1.9626592 *  3.2518961    4.4693254  
   3 C       1.3910327 *  1.9626592 *  0.0000000    1.5410518 *  2.5219835 *
   4 C       2.3486576 *  3.2518961    1.5410518 *  0.0000000    1.5261608 *
   5 C       3.7061800    4.4693254    2.5219835 *  1.5261608 *  0.0000000  
   6 H       2.6441061 *  1.7976865 *  3.7597315    4.9857668    6.2611799  
   7 O       2.1588293 *  1.1590659 *  3.0316034    4.3961351    5.5523610  
   8 H       2.8094906 *  1.8142432 *  3.3498212    4.8325616    5.8074606  
   9 H       2.0803184 *  2.3629556 *  1.0987838 *  2.1547268 *  2.7256162 *
  10 H       2.0855913 *  2.3645670 *  1.0992460 *  2.1545677 *  2.7259377 *
  11 H       2.5846623 *  3.5247562    2.1583564 *  1.0905525 *  2.1551341 *
  12 H       2.5798867 *  3.5232636    2.1579601 *  1.0906375 *  2.1551239 *
  13 H       4.0024169    4.6440217    2.7468371 *  2.1489024 *  1.0886538 *
  14 H       4.0055831    4.6452448    2.7472316 *  2.1489115 *  1.0886588 *
  15 H       4.4945530    5.3526167    3.4655454    2.1530899 *  1.0847129 *

                6 H          7 O          8 H          9 H         10 H     

   1 O       2.6441061 *  2.1588293 *  2.8094906 *  2.0803184 *  2.0855913 *
   2 H       1.7976865 *  1.1590659 *  1.8142432 *  2.3629556 *  2.3645670 *
   3 C       3.7597315    3.0316034    3.3498212    1.0987838 *  1.0992460 *
   4 C       4.9857668    4.3961351    4.8325616    2.1547268 *  2.1545677 *
   5 C       6.2611799    5.5523610    5.8074606    2.7256162 *  2.7259377 *
   6 H       0.0000000    0.9445661 *  1.6497373 *  4.0558249    4.0292263  
   7 O       0.9445661 *  0.0000000    0.9330597 *  3.2758997    3.2090976  
   8 H       1.6497373 *  0.9330597 *  0.0000000    3.4609737    3.2890459  
   9 H       4.0558249    3.2758997    3.4609737    0.0000000    1.7758515 *
  10 H       4.0292263    3.2090976    3.2890459    1.7758515 *  0.0000000  
  11 H       5.1192198    4.6264472    5.1188580    3.0532859    2.4847912 *
  12 H       5.1396572    4.6725573    5.2305026    2.4850576 *  3.0530950  
  13 H       6.4241854    5.6728096    5.8576816    2.4944344 *  3.0615597  
  14 H       6.4079319    5.6349669    5.7582597    3.0612124    2.4950051 *
  15 H       7.1177172    6.4728929    6.7983791    3.7199583    3.7202454  

               11 H         12 H         13 H         14 H         15 H     

   1 O       2.5846623 *  2.5798867 *  4.0024169    4.0055831    4.4945530  
   2 H       3.5247562    3.5232636    4.6440217    4.6452448    5.3526167  
   3 C       2.1583564 *  2.1579601 *  2.7468371 *  2.7472316 *  3.4655454  
   4 C       1.0905525 *  1.0906375 *  2.1489024 *  2.1489115 *  2.1530899 *
   5 C       2.1551341 *  2.1551239 *  1.0886538 *  1.0886588 *  1.0847129 *
   6 H       5.1192198    5.1396572    6.4241854    6.4079319    7.1177172  
   7 O       4.6264472    4.6725573    5.6728096    5.6349669    6.4728929  
   8 H       5.1188580    5.2305026    5.8576816    5.7582597    6.7983791  
   9 H       3.0532859    2.4850576 *  2.4944344 *  3.0612124    3.7199583  
  10 H       2.4847912 *  3.0530950    3.0615597    2.4950051 *  3.7202454  
  11 H       0.0000000    1.7721769 *  3.0508415    2.4831285 *  2.4836598 *
  12 H       1.7721769 *  0.0000000    2.4830719 *  3.0508731    2.4835982 *
  13 H       3.0508415    2.4830719 *  0.0000000    1.7729289 *  1.7751009 *
  14 H       2.4831285 *  3.0508731    1.7729289 *  0.0000000    1.7751323 *
  15 H       2.4836598 *  2.4835982 *  1.7751009 *  1.7751323 *  0.0000000  

  * ... LESS THAN  3.000

 ...... END OF ONE-ELECTRON INTEGRALS ......
 STEP CPU TIME =     0.00 TOTAL CPU TIME =          0.2 (      0.0 MIN)
 TOTAL WALL CLOCK TIME=          0.3 SECONDS, CPU UTILIZATION IS    58.06%
 TOTAL NUMBER OF NONZERO TWO-ELECTRON INTEGRALS =              160935
         11 INTEGRAL RECORDS WERE STORED ON DISK FILE  8.
  ...... END OF TWO-ELECTRON INTEGRALS .....
 STEP CPU TIME =     0.03 TOTAL CPU TIME =          0.2 (      0.0 MIN)
 TOTAL WALL CLOCK TIME=          0.3 SECONDS, CPU UTILIZATION IS    61.76%

          --------------------------
                 RHF SCF CALCULATION
          --------------------------
     DENSITY MATRIX CONV=  2.00E-04

 ITER EX DEM     TOTAL ENERGY        E CHANGE  DENSITY CHANGE     ORB. GRAD
          ---------------START SECOND ORDER SCF---------------
   1  0  0     -265.6197667671  -265.6197667671   0.033614277   0.024848355
   2  1  0     -265.6242705862    -0.0045038191   0.021032907   0.005676594
   3  2  0     -265.6248987647    -0.0006281784   0.001690972   0.001527862
   4  3  0     -265.6249091395    -0.0000103749   0.000592319   0.000308906
   5  4  0     -265.6249102414    -0.0000011019   0.000061290   0.000056414
   6  5  0     -265.6249102565    -0.0000000151   0.000021835   0.000009645
   7  6  0     -265.6249102580    -0.0000000015   0.000006125   0.000002889

          -----------------
          DENSITY CONVERGED
          -----------------
     TIME TO FORM FOCK OPERATORS=       0.0 SECONDS (       0.0 SEC/ITER)
     TIME TO SOLVE SCF EQUATIONS=       0.0 SECONDS (       0.0 SEC/ITER)

 FINAL RHF ENERGY IS     -265.6249102580 AFTER   7 ITERATIONS
 ...... END OF RHF CALCULATION ......
 STEP CPU TIME =     0.01 TOTAL CPU TIME =          0.2 (      0.0 MIN)
 TOTAL WALL CLOCK TIME=          0.3 SECONDS, CPU UTILIZATION IS    62.86%
 ..... END OF 1-ELECTRON GRADIENT ......
 STEP CPU TIME =     0.02 TOTAL CPU TIME =          0.2 (      0.0 MIN)
 TOTAL WALL CLOCK TIME=          0.4 SECONDS, CPU UTILIZATION IS    64.86%
 ...... END OF 2-ELECTRON GRADIENT ......
 STEP CPU TIME =     0.05 TOTAL CPU TIME =          0.3 (      0.0 MIN)
 TOTAL WALL CLOCK TIME=          0.4 SECONDS, CPU UTILIZATION IS    69.05%

          NSERCH=  1     ENERGY=    -265.6249103

                                 -----------------------
                                 GRADIENT (HARTREE/BOHR)
                                 -----------------------
        ATOM     ZNUC       DE/DX         DE/DY         DE/DZ
 --------------------------------------------------------------
    1  O            8.0     0.0052365     0.0258275    -0.0116934
    2  H            1.0    -0.0204398     0.0705052    -0.0258377
    3  C            6.0     0.0000459     0.0100003    -0.0048350
    4  C            6.0    -0.0044532     0.0020488     0.0015903
    5  C            6.0    -0.0034247     0.0029636     0.0003199
    6  H            1.0     0.0321636    -0.0366920    -0.0044038
    7  O            8.0     0.0128823    -0.0122006     0.0141509
    8  H            1.0    -0.0054609    -0.0656302     0.0225702
    9  H            1.0    -0.0044535    -0.0020070     0.0030415
   10  H            1.0    -0.0029192    -0.0017251     0.0036589
   11  H            1.0     0.0026085     0.0013263     0.0028400
   12  H            1.0    -0.0012214    -0.0023611    -0.0032021
   13  H            1.0    -0.0043052     0.0018609    -0.0028620
   14  H            1.0    -0.0011697     0.0049100     0.0022085
   15  H            1.0    -0.0050894     0.0011734     0.0024538

          MAXIMUM GRADIENT = 0.0705052    RMS GRADIENT = 0.0182609

 NSERCH:   1  E=     -265.6249102580  GRAD. MAX=  0.0705052  R.M.S.=  0.0182609

          HESSIAN UPDATED USING THE BFGS FORMULA
             ACTUAL ENERGY CHANGE WAS  -0.0584949188
          PREDICTED ENERGY CHANGE WAS  -0.0740141213 RATIO=  0.790
          MIN SEARCH, CORRECT HESSIAN, TRYING PURE NR STEP
               NR STEP HAS LENGTH         =  29.877072
          TRIM/QA LAMBDA FOR NON-TS MODES =  -0.11657917
          TRIM/QA STEP HAS LENGTH         =   0.424264
          RADIUS OF STEP TAKEN=   0.42426  CURRENT TRUST RADIUS=   0.42426

 BEGINNING GEOMETRY SEARCH POINT NSERCH=   2 ...

 COORDINATES OF ALL ATOMS ARE (ANGS)
   ATOM   CHARGE       X              Y              Z
 ------------------------------------------------------------
 O           8.0  -4.1623425458   0.9161867465   0.2704869465
 H           1.0  -4.3960480256   1.8288197739  -0.0839792509
 C           6.0  -2.9231115034   0.5810001817  -0.2735970343
 C           6.0  -2.5802103181  -0.7883594057   0.3378562720
 C           6.0  -1.2476184699  -1.3089060038  -0.1804013037
 H           1.0  -5.7061455430   3.2282143772  -0.0054673461
 O           8.0  -4.8494078288   2.9488011878  -0.3982334902
 H           1.0  -4.3707134582   3.7193189554  -0.7815256402
 H           1.0  -2.9292791228   0.4922475599  -1.3746306501
 H           1.0  -2.1075442410   1.2905840415  -0.0430658464
 H           1.0  -2.5597514113  -0.6797059572   1.4214722205
 H           1.0  -3.3875816983  -1.4774508412   0.0932278947
 H           1.0  -1.2915093452  -1.4054267365  -1.2609010707
 H           1.0  -0.4603399361  -0.6053953144   0.0722725193
 H           1.0  -1.0226865526  -2.2725485650   0.2573357796

          INTERNUCLEAR DISTANCES (ANGS.)
          ------------------------------

                1 O          2 H          3 C          4 C          5 C     

   1 O       0.0000000    1.0065603 *  1.3942995 *  2.3266196 *  3.6945845  
   2 H       1.0065603 *  0.0000000    1.9397295 *  3.2132287    4.4460352  
   3 C       1.3942995 *  1.9397295 *  0.0000000    1.5383764 *  2.5273915 *
   4 C       2.3266196 *  3.2132287    1.5383764 *  0.0000000    1.5216309 *
   5 C       3.6945845    4.4460352    2.5273915 *  1.5216309 *  0.0000000  
   6 H       2.7937341 *  1.9185476 *  3.8503136    5.1011966    6.3635310  
   7 O       2.2473912 *  1.2484587 *  3.0549359    4.4336728    5.5810759  
   8 H       3.0012829    2.0152419 *  3.4932202    4.9777587    5.9496318  
   9 H       2.0991860 *  2.3671961 *  1.1046221 *  2.1666598 *  2.7383061 *
  10 H       2.1120333 *  2.3513020 *  1.1053524 *  2.1657610 *  2.7414744 *
  11 H       2.5377035 *  3.4541382    2.1435182 *  1.0892418 *  2.1641590 *
  12 H       2.5221372 *  3.4611894    2.1418482 *  1.0892835 *  2.1639600 *
  13 H       3.9970892    4.6350465    2.7536860 *  2.1441892 *  1.0856898 *
  14 H       4.0074087    4.6302933    2.7554317 *  2.1442623 *  1.0856237 *
  15 H       4.4750023    5.3213989    3.4693292    2.1529471 *  1.0820421 *

                6 H          7 O          8 H          9 H         10 H     

   1 O       2.7937341 *  2.2473912 *  3.0012829    2.0991860 *  2.1120333 *
   2 H       1.9185476 *  1.2484587 *  2.0152419 *  2.3671961 *  2.3513020 *
   3 C       3.8503136    3.0549359    3.4932202    1.1046221 *  1.1053524 *
   4 C       5.1011966    4.4336728    4.9777587    2.1666598 *  2.1657610 *
   5 C       6.3635310    5.5810759    5.9496318    2.7383061 *  2.7414744 *
   6 H       0.0000000    0.9830242 *  1.6207495 *  4.1317199    4.0872676  
   7 O       0.9830242 *  0.0000000    0.9847633 *  3.2672468    3.2239175  
   8 H       1.6207495 *  0.9847633 *  0.0000000    3.5837824    3.4008839  
   9 H       4.1317199    3.2672468    3.5837824    0.0000000    1.7566030 *
  10 H       4.0872676    3.2239175    3.4008839    1.7566030 *  0.0000000  
  11 H       5.2161091    4.6604634    5.2425379    3.0542130    2.4962784 *
  12 H       5.2467861    4.6872355    5.3607983    2.4988721 *  3.0527183  
  13 H       6.5219442    5.6887730    5.9978594    2.5092612 *  3.0687961  
  14 H       6.4977753    5.6672397    5.8926349    3.0649648    2.5142241 *
  15 H       7.2292632    6.5066166    6.9419733    3.7339667    3.7367193  

               11 H         12 H         13 H         14 H         15 H     

   1 O       2.5377035 *  2.5221372 *  3.9970892    4.0074087    4.4750023  
   2 H       3.4541382    3.4611894    4.6350465    4.6302933    5.3213989  
   3 C       2.1435182 *  2.1418482 *  2.7536860 *  2.7554317 *  3.4693292  
   4 C       1.0892418 *  1.0892835 *  2.1441892 *  2.1442623 *  2.1529471 *
   5 C       2.1641590 *  2.1639600 *  1.0856898 *  1.0856237 *  1.0820421 *
   6 H       5.2161091    5.2467861    6.5219442    6.4977753    7.2292632  
   7 O       4.6604634    4.6872355    5.6887730    5.6672397    6.5066166  
   8 H       5.2425379    5.3607983    5.9978594    5.8926349    6.9419733  
   9 H       3.0542130    2.4988721 *  2.5092612 *  3.0649648    3.7339667  
  10 H       2.4962784 *  3.0527183    3.0687961    2.5142241 *  3.7367193  
  11 H       0.0000000    1.7566823 *  3.0545433    2.4966759 *  2.5009857 *
  12 H       1.7566823 *  0.0000000    2.4964719 *  3.0544499    2.5003681 *
  13 H       3.0545433    2.4964719 *  0.0000000    1.7630215 *  1.7689571 *
  14 H       2.4966759 *  3.0544499    1.7630215 *  0.0000000    1.7691473 *
  15 H       2.5009857 *  2.5003681 *  1.7689571 *  1.7691473 *  0.0000000  

  * ... LESS THAN  3.000

 ...... END OF ONE-ELECTRON INTEGRALS ......
 STEP CPU TIME =     0.00 TOTAL CPU TIME =          0.3 (      0.0 MIN)
 TOTAL WALL CLOCK TIME=          0.4 SECONDS, CPU UTILIZATION IS    69.05%
 TOTAL NUMBER OF NONZERO TWO-ELECTRON INTEGRALS =              159906
         11 INTEGRAL RECORDS WERE STORED ON DISK FILE  8.
  ...... END OF TWO-ELECTRON INTEGRALS .....
 STEP CPU TIME =     0.03 TOTAL CPU TIME =          0.3 (      0.0 MIN)
 TOTAL WALL CLOCK TIME=          0.5 SECONDS, CPU UTILIZATION IS    69.57%

          --------------------------
                 RHF SCF CALCULATION
          --------------------------
     DENSITY MATRIX CONV=  5.00E-05

 ITER EX DEM     TOTAL ENERGY        E CHANGE  DENSITY CHANGE     ORB. GRAD
          ---------------START SECOND ORDER SCF---------------
   1  0  0     -265.6495359839  -265.6495359839   0.051540626   0.021129674
   2  1  0     -265.6549807180    -0.0054447340   0.044084013   0.009067540
   3  2  0     -265.6558921524    -0.0009114345   0.002737476   0.001397677
   4  3  0     -265.6559118834    -0.0000197310   0.001304247   0.000477647
   5  4  0     -265.6559145582    -0.0000026748   0.000144461   0.000057582
   6  5  0     -265.6559145961    -0.0000000379   0.000050628   0.000014147
   7  6  0     -265.6559146006    -0.0000000045   0.000010302   0.000003074
   8  7  0     -265.6559146008    -0.0000000002   0.000003484   0.000001503

          -----------------
          DENSITY CONVERGED
          -----------------
     TIME TO FORM FOCK OPERATORS=       0.0 SECONDS (       0.0 SEC/ITER)
     TIME TO SOLVE SCF EQUATIONS=       0.0 SECONDS (       0.0 SEC/ITER)

 FINAL RHF ENERGY IS     -265.6559146008 AFTER   8 ITERATIONS
 ...... END OF RHF CALCULATION ......
 STEP CPU TIME =     0.02 TOTAL CPU TIME =          0.3 (      0.0 MIN)
 TOTAL WALL CLOCK TIME=          0.5 SECONDS, CPU UTILIZATION IS    72.34%
 ..... END OF 1-ELECTRON GRADIENT ......
 STEP CPU TIME =     0.01 TOTAL CPU TIME =          0.3 (      0.0 MIN)
 TOTAL WALL CLOCK TIME=          0.5 SECONDS, CPU UTILIZATION IS    72.92%
 ...... END OF 2-ELECTRON GRADIENT ......
 STEP CPU TIME =     0.05 TOTAL CPU TIME =          0.4 (      0.0 MIN)
 TOTAL WALL CLOCK TIME=          0.5 SECONDS, CPU UTILIZATION IS    75.47%

          NSERCH=  2     ENERGY=    -265.6559146

                                 -----------------------
                                 GRADIENT (HARTREE/BOHR)
                                 -----------------------
        ATOM     ZNUC       DE/DX         DE/DY         DE/DZ
 --------------------------------------------------------------
    1  O            8.0     0.0087256     0.0078710    -0.0101378
[...]
                     A          A          A          A          A   
    1  O  1  S    0.020788   0.000003   0.028687   0.000446   0.068935
    2  O  1  S   -0.124968  -0.000042  -0.172179  -0.002953  -0.457734
    3  O  1  X   -0.201692  -0.000698  -0.314291  -0.070324   0.089138
    4  O  1  Y    0.004988  -0.001408   0.091885  -0.063349  -0.450328
    5  O  1  Z    0.161061  -0.001302   0.192712  -0.085385   0.241705
    6  H  2  S   -0.042734   0.000532  -0.080478   0.005141   0.778488
    7  C  3  S    0.042021   0.000052  -0.115316   0.000146   0.030185
    8  C  3  S   -0.252523  -0.000271   0.685329  -0.001031  -0.210224
    9  C  3  X   -0.384511   0.000225  -0.163955   0.442156  -0.204148
   10  C  3  Y    0.730526  -0.000031   0.441360   0.375428  -0.163037
   11  C  3  Z   -0.192028  -0.000261  -0.171895   0.544348   0.272209
   12  C  4  S   -0.035697  -0.000006  -0.128987  -0.000052  -0.009690
   13  C  4  S    0.195532   0.000014   0.793242   0.000206   0.043904
   14  C  4  X   -0.257658   0.000594   0.226392  -0.009300   0.564008
   15  C  4  Y    0.687342   0.000239  -0.158673  -0.011762  -0.198584
   16  C  4  Z   -0.265213  -0.000051  -0.074768  -0.018003  -0.323319
   17  C  5  S   -0.032082   0.000051  -0.023348   0.000297   0.040015
   18  C  5  S    0.186053  -0.000298   0.176725  -0.001738  -0.230906
   19  C  5  X   -0.113472   0.000465   0.565716  -0.421201   0.459233
   20  C  5  Y    0.478324   0.000293  -0.469786  -0.360099   0.064043
   21  C  5  Z   -0.238512  -0.000131  -0.135476  -0.522500  -0.411669
   22  H  6  S    0.000922  -0.820817   0.016299  -0.002076  -0.141898
   23  O  7  S   -0.000561   0.000002   0.000458  -0.000025  -0.000924
   24  O  7  S    0.003461  -0.000004  -0.005443   0.000346   0.032456
   25  O  7  X    0.000293  -0.531899   0.015963  -0.000752  -0.141757
   26  O  7  Y   -0.004943  -0.456757  -0.021895   0.001755   0.211310
   27  O  7  Z    0.003365  -0.651526   0.002105   0.000204  -0.031428
   28  H  8  S    0.000754   0.820647   0.016513  -0.000087  -0.142816
   29  H  9  S   -0.066587  -0.000204  -0.446722   0.616064   0.233738
   30  H 10  S   -0.066622   0.000126  -0.446576  -0.613997   0.241503
   31  H 11  S    0.135440  -0.000076  -0.295416   0.018833   0.192230
   32  H 12  S    0.135919   0.000595  -0.295427  -0.015982   0.191096
   33  H 13  S   -0.298178   0.000136  -0.132452  -0.609883  -0.207418
   34  H 14  S   -0.297792  -0.000426  -0.133110   0.608431  -0.214544
   35  H 15  S    0.510448   0.000347  -0.547239   0.000583   0.203372

                     31         32
                    0.7638     0.7713
                     A          A   
    1  O  1  S   -0.035226   0.022855
    2  O  1  S    0.219341  -0.144166
    3  O  1  X    0.129699  -0.160798
    4  O  1  Y    0.050087   0.011095
    5  O  1  Z   -0.140907   0.123660
    6  H  2  S   -0.196492   0.023856
    7  C  3  S    0.200590  -0.030243
    8  C  3  S   -1.232335   0.170877
    9  C  3  X   -0.267502  -0.205593
   10  C  3  Y    0.111777   0.251733
   11  C  3  Z    0.141057  -0.007065
   12  C  4  S   -0.157942  -0.016591
   13  C  4  S    0.963479   0.075755
   14  C  4  X   -0.068081   0.301252
   15  C  4  Y    0.253368   0.138830
   16  C  4  Z   -0.119582  -0.341762
   17  C  5  S    0.026677   0.209622
   18  C  5  S   -0.153506  -1.343694
   19  C  5  X    0.222729  -0.216538
   20  C  5  Y   -0.375640  -0.218762
   21  C  5  Z    0.078166   0.328442
   22  H  6  S    0.025203  -0.005612
   23  O  7  S   -0.000899  -0.000086
   24  O  7  S    0.000500   0.001746
   25  O  7  X    0.024860  -0.005686
   26  O  7  Y   -0.044883   0.008153
   27  O  7  Z    0.011010  -0.001052
   28  H  8  S    0.025359  -0.005632
   29  H  9  S    0.639268  -0.136700
   30  H 10  S    0.639102  -0.136107
   31  H 11  S   -0.347859   0.169285
   32  H 12  S   -0.347593   0.169138
   33  H 13  S    0.111437   0.788969
   34  H 14  S    0.111456   0.788018
   35  H 15  S   -0.283620   0.311565

     ----------------------------------------------------------------
     PROPERTY VALUES FOR THE RHF   SELF-CONSISTENT FIELD WAVEFUNCTION
     ----------------------------------------------------------------

          -----------------
          ENERGY COMPONENTS
          -----------------

         WAVEFUNCTION NORMALIZATION =       1.0000000000

                ONE ELECTRON ENERGY =    -731.6619643004
                TWO ELECTRON ENERGY =     281.3024150001
           NUCLEAR REPULSION ENERGY =     184.6710461377
                                      ------------------
                       TOTAL ENERGY =    -265.6885031626

 ELECTRON-ELECTRON POTENTIAL ENERGY =     281.3024150001
  NUCLEUS-ELECTRON POTENTIAL ENERGY =    -995.3055688984
   NUCLEUS-NUCLEUS POTENTIAL ENERGY =     184.6710461377
                                      ------------------
             TOTAL POTENTIAL ENERGY =    -529.3321077605
               TOTAL KINETIC ENERGY =     263.6436045980
                 VIRIAL RATIO (V/T) =       2.0077562988

          ---------------------------------------
          MULLIKEN AND LOWDIN POPULATION ANALYSES
          ---------------------------------------

     ATOMIC MULLIKEN POPULATION IN EACH MOLECULAR ORBITAL

                      1          2          3          4          5

                  2.000000   2.000000   2.000000   2.000000   2.000000

    1             0.000003   2.001187  -0.000371   0.000000  -0.000000
    2            -0.000036  -0.000660  -0.000024  -0.000000  -0.000000
    3             0.000000  -0.000538   2.002978  -0.000674  -0.000021
    4             0.000000   0.000002  -0.000690   1.941756   0.060926
    5             0.000000  -0.000000   0.000002   0.060859   1.942108
    6            -0.000617   0.000000   0.000000   0.000000  -0.000000
    7             2.001267   0.000003  -0.000000  -0.000000  -0.000000
    8            -0.000617   0.000000   0.000000   0.000000  -0.000000
    9             0.000000   0.000003  -0.000948  -0.000000  -0.000000
   10             0.000000   0.000003  -0.000948  -0.000000  -0.000000
   11             0.000000  -0.000000   0.000000  -0.000945  -0.000043
   12             0.000000  -0.000000   0.000000  -0.000945  -0.000043
   13            -0.000000  -0.000000   0.000000  -0.000017  -0.000976
   14            -0.000000  -0.000000   0.000000  -0.000017  -0.000976
   15             0.000000  -0.000000   0.000000  -0.000017  -0.000975

                      6          7          8          9         10

                  2.000000   2.000000   2.000000   2.000000   2.000000

    1             0.026624   1.464544   0.063797   0.143061   0.075291
    2             0.016857   0.150448   0.015394   0.039803   0.004712
    3             0.004133   0.295495   0.231029   0.498083   0.428481
    4             0.000191   0.020254   0.700450   0.197442   0.512323
    5             0.000006   0.000940   0.567853   0.549852   0.194663
    6             0.174421   0.004383   0.000053   0.000151   0.000013
    7             1.602984   0.034253   0.000426   0.001765   0.000305
    8             0.174429   0.004389   0.000053   0.000153   0.000013
    9             0.000167   0.011258   0.024105   0.095901   0.146398
   10             0.000167   0.011253   0.024108   0.095866   0.146409
   11             0.000010   0.001326   0.082657   0.011997   0.174569
   12             0.000010   0.001325   0.082658   0.012005   0.174544
   13             0.000000   0.000052   0.070826   0.109158   0.060144
   14             0.000000   0.000052   0.070822   0.109170   0.060093
   15             0.000000   0.000026   0.065768   0.135592   0.022041

                     11         12         13         14         15

                  2.000000   2.000000   2.000000   2.000000   2.000000

    1             0.000384   0.087807   0.651934   0.090481   0.184079
    2             0.000001   0.000026   0.393645   0.000884   0.000000
    3             0.000447   0.422908   0.320807   0.205983   0.418935
    4             0.000139   0.454689   0.080750   0.252241   0.036974
    5             0.000041   0.236848   0.075867   0.740303   0.524346
    6             0.451168   0.000306   0.023712   0.000001   0.000050
    7             1.095750   0.000674   0.304224   0.000642   0.000125
    8             0.451586   0.000229   0.023287   0.000001   0.000045
    9             0.000190   0.151700   0.045597   0.018322   0.170338
   10             0.000176   0.149122   0.048025   0.018266   0.170883
   11             0.000044   0.157950   0.001757   0.025530   0.015403
   12             0.000045   0.158532   0.001259   0.025471   0.015392
   13             0.000014   0.089162   0.008313   0.078220   0.231217
   14             0.000016   0.090046   0.007385   0.077715   0.232214
   15             0.000000   0.000000   0.013439   0.465941   0.000000

                     16         17         18         19         20

                  2.000000   2.000000   2.000000   2.000000   2.000000

    1             0.087610   0.129108   0.069391   0.081922   0.597035
    2             0.000338   0.032401   0.007189   0.000008   0.006346
    3             0.094603   0.028847   0.333907   0.074589   0.339387
    4             0.103807   0.462163   0.295678   0.520830   0.252435
    5             0.094992   0.476146   0.158487   0.254079   0.285325
    6             0.140130   0.009611   0.000080   0.000008   0.000457
    7             1.288372   0.492741   0.823785   0.000966   0.389629
    8             0.140150   0.009635   0.000084   0.000005   0.000459
    9             0.011963   0.000444   0.011586   0.052778   0.020411
   10             0.011776   0.000462   0.014893   0.049381   0.020473
   11             0.001652   0.086193   0.035703   0.318818   0.010824
   12             0.001642   0.085637   0.051075   0.304156   0.010772
   13             0.010037   0.086197   0.022185   0.175292   0.002952
   14             0.009790   0.085418   0.031088   0.167016   0.002949
   15             0.003138   0.014997   0.144867   0.000152   0.060545

                     21         22

                  2.000000   2.000000

    1             0.968404   1.616900
    2             0.124945   0.000000
    3             0.205215   0.087341
    4             0.204475   0.002721
    5             0.015768   0.000397
    6             0.004980   0.000007
    7             0.294435   0.000042
    8             0.005007   0.000006
    9             0.064131   0.140065
   10             0.063359   0.140745
   11             0.014305   0.005859
   12             0.014192   0.005917
   13             0.001873  -0.000000
   14             0.001861  -0.000001
   15             0.017049   0.000000

               ----- POPULATIONS IN EACH AO -----
                             MULLIKEN      LOWDIN
              1  O  1  S      1.99773     1.99597
              2  O  1  S      1.83111     1.70821
              3  O  1  X      1.41120     1.43189
              4  O  1  Y      1.40811     1.42347
              5  O  1  Z      1.69104     1.70013
              6  H  2  S      0.79228     0.85201
              7  C  3  S      1.99238     1.98476
              8  C  3  S      1.17576     1.04576
              9  C  3  X      0.89396     0.93013
             10  C  3  Y      0.96950     1.00195
             11  C  3  Z      0.96034     0.98968
             12  C  4  S      1.99205     1.98504
             13  C  4  S      1.17836     1.02717
             14  C  4  X      0.96713     1.00030
             15  C  4  Y      0.96808     1.00350
             16  C  4  Z      0.99394     1.02160
             17  C  5  S      1.99203     1.98537
             18  C  5  S      1.18360     1.01386
             19  C  5  X      0.98462     1.01736
             20  C  5  Y      1.01134     1.03762
             21  C  5  Z      1.00730     1.03475
             22  H  6  S      0.80891     0.86249
             23  O  7  S      1.99773     1.99603
             24  O  7  S      1.83860     1.69359
             25  O  7  X      1.37056     1.38468
             26  O  7  Y      1.58697     1.59591
             27  O  7  Z      1.53852     1.55018
             28  H  8  S      0.80891     0.86250
             29  H  9  S      0.96441     0.99603
             30  H 10  S      0.96442     0.99604
             31  H 11  S      0.94361     0.97536
             32  H 12  S      0.94364     0.97538
             33  H 13  S      0.94465     0.97435
             34  H 14  S      0.94464     0.97434
             35  H 15  S      0.94257     0.97257

          ----- MULLIKEN ATOMIC OVERLAP POPULATIONS -----
          (OFF-DIAGONAL ELEMENTS NEED TO BE MULTIPLIED BY 2)

             1           2           3           4           5

    1    7.8754778
    2    0.2526359   0.5704868
    3    0.2653087  -0.0394335   4.7287856
    4   -0.0177367   0.0024035   0.3568711   4.7376175
    5    0.0002092  -0.0000336  -0.0200957   0.3616946   4.7307671
    6    0.0002895  -0.0024161  -0.0000026   0.0000001  -0.0000000
    7   -0.0048263   0.0175189   0.0001504  -0.0000009   0.0000000
    8    0.0002892  -0.0024032  -0.0000027   0.0000001  -0.0000000
    9   -0.0157486  -0.0032695   0.3737558  -0.0236824  -0.0016653
   10   -0.0157661  -0.0032330   0.3737399  -0.0236900  -0.0016699
   11   -0.0004725   0.0000110  -0.0221707   0.3833575  -0.0217200
   12   -0.0004707   0.0000109  -0.0221721   0.3833552  -0.0217181
   13    0.0000024  -0.0000009  -0.0019803  -0.0205244   0.3841728
   14    0.0000024  -0.0000009  -0.0019764  -0.0205268   0.3841734
   15   -0.0000038   0.0000007   0.0011562  -0.0195826   0.3847676

             6           7           8           9          10

    6    0.5962627
    7    0.2584663   7.8025299
    8   -0.0436799   0.2584665   0.5962492
    9   -0.0000041   0.0000425  -0.0000011   0.6641150
   10   -0.0000011   0.0000416  -0.0000040  -0.0289524   0.6641260
   11    0.0000000  -0.0000000   0.0000000   0.0018449  -0.0023813
   12    0.0000000  -0.0000000   0.0000000  -0.0023880   0.0018448
   13   -0.0000000   0.0000000  -0.0000000   0.0003626   0.0000035
   14   -0.0000000   0.0000000  -0.0000000   0.0000035   0.0003625
   15    0.0000000  -0.0000000   0.0000000  -0.0000017  -0.0000016

            11          12          13          14          15

   11    0.6311581
   12   -0.0236033   0.6311938
   13    0.0018378  -0.0021483   0.6272324
   14   -0.0021552   0.0018378  -0.0223178   0.6272270
   15   -0.0020947  -0.0020998  -0.0219892  -0.0219874   0.6244023

          TOTAL MULLIKEN AND LOWDIN ATOMIC POPULATIONS
       ATOM         MULL.POP.    CHARGE          LOW.POP.     CHARGE
    1 O             8.339190   -0.339190         8.259673   -0.259673
    2 H             0.792277    0.207723         0.852014    0.147986
    3 C             5.991934    0.008066         5.952293    0.047707
    4 C             6.099556   -0.099556         6.037607   -0.037607
    5 C             6.178882   -0.178882         6.088966   -0.088966
    6 H             0.808915    0.191085         0.862494    0.137506
    7 O             8.332389   -0.332389         8.220391   -0.220391
    8 H             0.808914    0.191086         0.862499    0.137501
    9 H             0.964411    0.035589         0.996027    0.003973
   10 H             0.964419    0.035581         0.996038    0.003962
   11 H             0.943612    0.056388         0.975355    0.024645
   12 H             0.943642    0.056358         0.975380    0.024620
   13 H             0.944650    0.055350         0.974350    0.025650
   14 H             0.944642    0.055358         0.974343    0.025657
   15 H             0.942566    0.057434         0.972570    0.027430

          -------------------------------
          BOND ORDER AND VALENCE ANALYSIS     BOND ORDER THRESHOLD=0.050
          -------------------------------

                   BOND                       BOND                       BOND
  ATOM PAIR DIST  ORDER      ATOM PAIR DIST  ORDER      ATOM PAIR DIST  ORDER
    1   2  0.992  0.878        1   3  1.429  1.002        2   7  1.723  0.060
    3   4  1.547  0.986        3   9  1.098  0.964        3  10  1.098  0.964
    4   5  1.541  1.001        4  11  1.088  0.976        4  12  1.088  0.976
    5  13  1.086  0.984        5  14  1.086  0.984        5  15  1.086  0.984
    6   7  0.987  0.953        7   8  0.987  0.953

                       TOTAL       BONDED        FREE
      ATOM            VALENCE     VALENCE     VALENCE
    1 O                 1.973       1.973      -0.000
    2 H                 0.957       0.957      -0.000
    3 C                 3.943       3.943       0.000
    4 C                 3.966       3.966       0.000
    5 C                 3.968       3.968       0.000
    6 H                 0.963       0.963      -0.000
    7 O                 2.001       2.001      -0.000
    8 H                 0.963       0.963      -0.000
    9 H                 0.999       0.999      -0.000
   10 H                 0.999       0.999       0.000
   11 H                 0.997       0.997      -0.000
   12 H                 0.997       0.997      -0.000
   13 H                 0.997       0.997       0.000
   14 H                 0.997       0.997       0.000
   15 H                 0.997       0.997       0.000

          ---------------------
          ELECTROSTATIC MOMENTS
          ---------------------

 POINT   1           X           Y           Z (BOHR)    CHARGE
                -6.071204    1.245647   -0.112423        0.00 (A.U.)
         DX          DY          DZ         /D/  (DEBYE)
    -1.174421    2.475157   -0.770967    2.846060
 ...... END OF PROPERTY EVALUATION ......
 STEP CPU TIME =     0.01 TOTAL CPU TIME =          9.4 (      0.2 MIN)
 TOTAL WALL CLOCK TIME=          9.7 SECONDS, CPU UTILIZATION IS    97.21%
  $VIB   
          IVIB=   0 IATOM=   0 ICOORD=   0 E=     -265.6885031626
 -2.433948916E-06-6.153122519E-06 4.899115337E-06-6.916479480E-07 9.754514242E-06
 -2.725873883E-06-8.547359121E-06 5.379312668E-07-2.109563618E-06 5.205995580E-06
 -7.302057107E-07 1.207126681E-05-1.743573586E-05-2.201522171E-06 5.273008177E-06
  6.321145788E-05-1.933362830E-05 2.783295677E-05-7.192747379E-05 8.612361553E-05
  3.756703078E-05 1.133300966E-05-7.012819937E-05-6.481026564E-05 4.428749288E-06
 -5.998640976E-07-5.760511055E-07 1.037080567E-05-2.089655993E-06-1.906318772E-06
  2.371490312E-06-5.270819618E-06-1.530052468E-05-2.375711885E-06-1.633487009E-06
  7.990895793E-07 3.992195278E-06 1.267119672E-06-3.039807298E-06 6.275097253E-06
  9.704018040E-06 3.178988607E-06-3.776880061E-06 7.533109511E-07-1.153052629E-06
 -1.174421489E+00 2.475156919E+00-7.709665200E-01
 ......END OF GEOMETRY SEARCH......
 STEP CPU TIME =     0.00 TOTAL CPU TIME =          9.4 (      0.2 MIN)
 TOTAL WALL CLOCK TIME=          9.7 SECONDS, CPU UTILIZATION IS    97.21%
               580000  WORDS OF DYNAMIC MEMORY USED
 EXECUTION OF GAMESS TERMINATED NORMALLY Mon Mar  9 21:12:19 2020
 DDI: 263640 bytes (0.3 MB / 0 MWords) used by master data server.

 ----------------------------------------
 CPU timing information for all processes
 ========================================
 0: 9.47 + 0.381 = 9.428
 1: 0.01 + 0.02 = 0.03
 ----------------------------------------
 ddikick.x: exited gracefully.
unset echo
----- accounting info -----
Files used on the master node 192.168.0.12 were:
-rw-r--r--@ 1 wurthel  staff      908 Mar  9 21:12 .//input/complex_1.F05
-rw-r--r--  1 wurthel  staff  1980176 Mar  9 21:12 .//input/complex_1.F08
-rw-r--r--  1 wurthel  staff  1701440 Mar  9 21:12 .//input/complex_1.F10
-rw-r--r--  1 wurthel  staff  1363523 Mar  9 21:12 .//input/complex_1.dat
-rw-r--r--@ 1 wurthel  staff      908 Mar  9 21:02 .//input/complex_1.inp
-rw-r--r--  1 wurthel  staff   870920 Mar  9 21:12 .//input/complex_1.log
ls: No match.
ls: No match.
ls: No match.
Mon Mar  9 21:12:22 MSK 2020
9.111u 0.443s 0:12.85 74.3%	0+0k 0+0io 560pf+0w
