----- GAMESS execution script 'rungms' -----
This job is running on host 192.168.0.12
under operating system Darwin at Mon Mar 9 21:13:18 MSK 2020
Available scratch disk space (Kbyte units) at beginning of the job is
Filesystem   1024-blocks     Used Available Capacity iused               ifree %iused  Mounted on
/dev/disk1s5   118181844 44026064  70793356    39%  990774 9223372036853785033    0%   /
GAMESS temporary binary files will be written to ./
GAMESS supplementary output files will be written to ./
Copying input file input/complex_5.inp to your run's scratch directory...
cp input/complex_5.inp .//input/complex_5.F05
unset echo
.//ddikick.x .//gamess.30Sep2018R3.x input/complex_5 -ddi 1 1 192.168.0.12 -scr ./

 Distributed Data Interface kickoff program.
 Initiating 1 compute processes on 1 nodes to run the following command:
 .//gamess.30Sep2018R3.x input/complex_5 

          ******************************************************
          *         GAMESS VERSION = 30 SEP 2018 (R3)         *
          *             FROM IOWA STATE UNIVERSITY             *
          * M.W.SCHMIDT, K.K.BALDRIDGE, J.A.BOATZ, S.T.ELBERT, *
          *   M.S.GORDON, J.H.JENSEN, S.KOSEKI, N.MATSUNAGA,   *
          *          K.A.NGUYEN, S.J.SU, T.L.WINDUS,           *
          *       TOGETHER WITH M.DUPUIS, J.A.MONTGOMERY       *
          *         J.COMPUT.CHEM.  14, 1347-1363(1993)        *
          **************** 64 BIT APPLE VERSION ****************

  SINCE 1993, STUDENTS AND POSTDOCS WORKING AT IOWA STATE UNIVERSITY
  AND ALSO IN THEIR VARIOUS JOBS AFTER LEAVING ISU HAVE MADE IMPORTANT
  CONTRIBUTIONS TO THE CODE:
     IVANA ADAMOVIC, CHRISTINE AIKENS, YURI ALEXEEV, POOJA ARORA,
     ANDREY ASADCHEV, ROB BELL, PRADIPTA BANDYOPADHYAY, JONATHAN BENTZ,
     BRETT BODE, KURT BRORSEN, CALEB CARLIN, GALINA CHABAN, WEI CHEN,
     CHEOL HO CHOI, PAUL DAY, ALBERT DEFUSCO, NUWAN DESILVA, TIM DUDLEY,
     DMITRI FEDOROV, ALEX FINDLATER, GRAHAM FLETCHER, MARK FREITAG,
     KURT GLAESEMANN, ANASTASIA GUNINA,
     DAN KEMP, GRANT MERRILL, NORIYUKI MINEZAWA, JONATHAN MULLIN,
     TAKESHI NAGATA, SEAN NEDD, HEATHER NETZLOFF, BOSILJKA NJEGIC, RYAN OLSON,
     MIKE PAK, BUU PHAM,
     SPENCER PRUITT, LUKE ROSKOP, JIM SHOEMAKER, LYUDMILA SLIPCHENKO,
     TONY SMITH, SAROM SOK LEANG, JIE SONG, TETSUYA TAKETSUGU, SIMON WEBB,
     PENG XU, SOOHAENG YOO, FEDERICO ZAHARIEV

  ADDITIONAL CODE HAS BEEN PROVIDED BY COLLABORATORS IN OTHER GROUPS:
     IOWA STATE UNIVERSITY:
          JOE IVANIC, AARON WEST, LAIMUTIS BYTAUTAS, KLAUS RUEDENBERG
     UNIVERSITY OF TOKYO: KIMIHIKO HIRAO, TAKAHITO NAKAJIMA,
          TAKAO TSUNEDA, MUNEAKI KAMIYA, SUSUMU YANAGISAWA,
          KIYOSHI YAGI, MAHITO CHIBA, SEIKEN TOKURA, NAOAKI KAWAKAMI
     UNIVERSITY OF AARHUS: FRANK JENSEN
     UNIVERSITY OF IOWA: VISVALDAS KAIRYS, HUI LI
     NATIONAL INST. OF STANDARDS AND TECHNOLOGY: WALT STEVENS, DAVID GARMER
     UNIVERSITY OF PISA: BENEDETTA MENNUCCI, JACOPO TOMASI
     UNIVERSITY OF MEMPHIS: HENRY KURTZ, PRAKASHAN KORAMBATH
     UNIVERSITY OF ALBERTA: TOBY ZENG, MARIUSZ KLOBUKOWSKI
     UNIVERSITY OF NEW ENGLAND: MARK SPACKMAN
     MIE UNIVERSITY: HIROAKI UMEDA
     NAT. INST. OF ADVANCED INDUSTRIAL SCIENCE AND TECHNOLOGY: KAZUO KITAURA
     MICHIGAN STATE UNIVERSITY:
          KAROL KOWALSKI, MARTA WLOCH, JEFFREY GOUR, JESSE LUTZ,
          WEI LI, JUN SHEN, J. EMILIANO DEUSTUA, PIOTR PIECUCH
     UNIVERSITY OF MINNESOTA:
          YINAN SHU
     UNIVERSITY OF SILESIA: MONIKA MUSIAL, STANISLAW KUCHARSKI
     FACULTES UNIVERSITAIRES NOTRE-DAME DE LA PAIX:
          OLIVIER QUINET, BENOIT CHAMPAGNE
     UNIVERSITY OF CALIFORNIA - SANTA BARBARA: BERNARD KIRTMAN
     INSTITUTE FOR MOLECULAR SCIENCE:
          KAZUYA ISHIMURA, MICHIO KATOUDA, AND SHIGERU NAGASE
     UNIVERSITY OF NOTRE DAME: ANNA POMOGAEVA, DAN CHIPMAN
     KYUSHU UNIVERSITY:
          HARUYUKI NAKANO,
          FENG LONG GU, JACEK KORCHOWIEC, MARCIN MAKOWSKI, AND YURIKO AOKI,
          HIROTOSHI MORI AND EISAKU MIYOSHI
     PENNSYLVANIA STATE UNIVERSITY:
          TZVETELIN IORDANOV, CHET SWALINA, JONATHAN SKONE,
          SHARON HAMMES-SCHIFFER
     WASEDA UNIVERSITY:
          MASATO KOBAYASHI, TOMOKO AKAMA, TSUGUKI TOUMA,
          TAKESHI YOSHIKAWA, YASUHIRO IKABATA, JUNJI SEINO,
          YUYA NAKAJIMA, HIROMI NAKAI
     NANJING UNIVERSITY: SHUHUA LI
     UNIVERSITY OF NEBRASKA:
          PEIFENG SU, DEJUN SI, NANDUN THELLAMUREGE, YALI WANG, HUI LI
     UNIVERSITY OF ZURICH: ROBERTO PEVERATI, KIM BALDRIDGE
     N. COPERNICUS UNIVERSITY AND JACKSON STATE UNIVERSITY:
          MARIA BARYSZ
     UNIVERSITY OF COPENHAGEN: Jimmy Kromann, CASPER STEINMANN
     TOKYO INSTITUTE OF TECHNOLOGY: HIROYA NAKATA
     NAGOYA UNIVERSITY: YOSHIO NISHIMOTO, STEPHAN IRLE
     MOSCOW STATE UNIVERSITY: VLADIMIR MIRONOV

 EXECUTION OF GAMESS BEGUN Mon Mar  9 21:13:18 2020

            ECHO OF THE FIRST FEW INPUT CARDS -
 INPUT CARD>!   File created by the GAMESS Input Deck Generator Plugin for Avogadro         
 INPUT CARD> $BASIS GBASIS=STO NGAUSS=3 $END                                                
 INPUT CARD> $CONTRL SCFTYP=RHF RUNTYP=OPTIMIZE MAXIT=200 $END                              
 INPUT CARD> $STATPT OPTTOL=0.0001 NSTEP=200 $END                                           
 INPUT CARD>                                                                                
 INPUT CARD> $DATA                                                                          
 INPUT CARD>Title                                                                           
 INPUT CARD>C1                                                                              
 INPUT CARD>O     8.0    -4.17660     1.04720     0.17960                                   
 INPUT CARD>H     1.0    -4.43140     1.90860    -0.17830                                   
 INPUT CARD>C     6.0    -2.92480     0.56160    -0.30970                                   
 INPUT CARD>C     6.0    -2.62470    -0.80010     0.32000                                   
 INPUT CARD>C     6.0    -1.28450    -1.32000    -0.20380                                   
 INPUT CARD>H     1.0    -4.40740    -0.89238     1.57071                                   
 INPUT CARD>O     8.0    -4.99227    -0.12238     1.57966                                   
 INPUT CARD>H     1.0    -4.56940     0.49969     0.97182                                   
 INPUT CARD>H     1.0    -2.97400     0.45780    -1.39360                                   
 INPUT CARD>H     1.0    -2.13470     1.26520    -0.04750                                   
 INPUT CARD>H     1.0    -2.57560    -0.69630     1.40390                                   
 INPUT CARD>H     1.0    -3.41490    -1.50370     0.05790                                   
 INPUT CARD>H     1.0    -1.33360    -1.42380    -1.28770                                   
 INPUT CARD>H     1.0    -0.49430    -0.61640     0.05830                                   
 INPUT CARD>H     1.0    -1.07070    -2.29010     0.24480                                   
 INPUT CARD> $END                                                                           
    1000000 WORDS OF MEMORY AVAILABLE

     BASIS OPTIONS
     -------------
     GBASIS=STO          IGAUSS=       3      POLAR=NONE    
     NDFUNC=       0     NFFUNC=       0     DIFFSP=       F
     NPFUNC=       0      DIFFS=       F     BASNAM=        


     RUN TITLE
     ---------
 Title                                                                           

 THE POINT GROUP OF THE MOLECULE IS C1      
 THE ORDER OF THE PRINCIPAL AXIS IS     0

 ATOM      ATOMIC                      COORDINATES (BOHR)
           CHARGE         X                   Y                   Z
 O           8.0    -7.8926295603        1.9789210543        0.3393947874
 H           1.0    -8.3741317420        3.6067310202       -0.3369381436
 C           6.0    -5.5270705689        1.0612701147       -0.5852481384
 C           6.0    -4.9599638000       -1.5119697628        0.6047123161
 C           6.0    -2.4273530312       -2.4944383038       -0.3851261563
 H           1.0    -8.3287783183       -1.6863536769        2.9682115062
 O           8.0    -9.4340223567       -0.2312646664        2.9851245538
 H           1.0    -8.6349139283        0.9442771788        1.8364735094
 H           1.0    -5.6200450875        0.8651165572       -2.6335221365
 H           1.0    -4.0339980660        2.3908813197       -0.0897619844
 H           1.0    -4.8671782540       -1.3158162053        2.6529863142
 H           1.0    -6.4532252755       -2.8415809677        0.1094151347
 H           1.0    -2.5201385772       -2.6905918613       -2.4334001544
 H           1.0    -0.9340915557       -1.1648270988        0.1101710251
 H           1.0    -2.0233296151       -4.3276614845        0.4626049218

          INTERNUCLEAR DISTANCES (ANGS.)
          ------------------------------

                1 O          2 H          3 C          4 C          5 C     

   1 O       0.0000000    0.9669671 *  1.4290644 *  2.4167381 *  3.7569767  
   2 H       0.9669671 *  0.0000000    2.0252206 *  3.2938615    4.5086015  
   3 C       1.4290644 *  2.0252206 *  0.0000000    1.5299703 *  2.4984430 *
   4 C       2.4167381 *  3.2938615    1.5299703 *  0.0000000    1.5299668 *
   5 C       3.7569767    4.5086015    2.4984430 *  1.5299668 *  0.0000000  
   6 H       2.3980046 *  3.3022872    2.8014465 *  2.1796354 *  3.6172156  
   7 O       1.9983501 *  2.7440624 *  2.8830439 *  2.7661228 *  4.2851583  
   8 H       1.0400344 *  1.8239647 *  2.0858657 *  2.4282054 *  3.9349615  
   9 H       2.0660584 *  2.3886794 *  1.0899699 *  2.1542395 *  2.7259140 *
  10 H       2.0660237 *  2.3887032 *  1.0899816 *  2.1542099 *  2.7258996 *
  11 H       2.6649397 *  3.5683126    2.1542233 *  1.0899653 *  2.1542145 *
  12 H       2.6649744 *  3.5683125    2.1542497 *  1.0900300 *  2.1542601 *
  13 H       4.0424571    4.6831638    2.7258420 *  2.1542145 *  1.0899653 *
  14 H       4.0424760    4.6831999    2.7258830 *  2.1542601 *  1.0900300 *
  15 H       4.5594339    5.3946640    3.4463531    2.1542217 *  1.0899754 *

                6 H          7 O          8 H          9 H         10 H     

   1 O       2.3980046 *  1.9983501 *  1.0400344 *  2.0660584 *  2.0660237 *
   2 H       3.3022872    2.7440624 *  1.8239647 *  2.3886794 *  2.3887032 *
   3 C       2.8014465 *  2.8830439 *  2.0858657 *  1.0899699 *  1.0899816 *
   4 C       2.1796354 *  2.7661228 *  2.4282054 *  2.1542395 *  2.1542099 *
   5 C       3.6172156    4.2851583    3.9349615    2.7259140 *  2.7258996 *
   6 H       0.0000000    0.9669814 *  1.5240643 *  3.5587576    3.5268854  
   7 O       0.9669814 *  0.0000000    0.9670882 *  3.6400958    3.5691363  
   8 H       1.5240643 *  0.9670882 *  0.0000000    2.8534659 *  2.7482327 *
   9 H       3.5587576    3.6400958    2.8534659 *  0.0000000    1.7799732 *
  10 H       3.5268854    3.5691363    2.7482327 *  1.7799732 *  0.0000000  
  11 H       1.8498011 *  2.4900943 *  2.3648094 *  3.0523230    2.4796042 *
  12 H       1.9098069 *  2.5907324 *  2.4863008 *  2.4796627 *  3.0523480  
  13 H       4.2309764    4.8271434    4.3904039    2.4985087 *  3.0676666  
  14 H       4.2042717    4.7739215    4.3228018    3.0677078    2.4985044 *
  15 H       3.8529502    4.6754222    4.5334742    3.7226147    3.7225923  

               11 H         12 H         13 H         14 H         15 H     

   1 O       2.6649397 *  2.6649744 *  4.0424571    4.0424760    4.5594339  
   2 H       3.5683126    3.5683125    4.6831638    4.6831999    5.3946640  
   3 C       2.1542233 *  2.1542497 *  2.7258420 *  2.7258830 *  3.4463531  
   4 C       1.0899653 *  1.0900300 *  2.1542145 *  2.1542601 *  2.1542217 *
   5 C       2.1542145 *  2.1542601 *  1.0899653 *  1.0900300 *  1.0899754 *
   6 H       1.8498011 *  1.9098069 *  4.2309764    4.2042717    3.8529502  
   7 O       2.4900943 *  2.5907324 *  4.8271434    4.7739215    4.6754222  
   8 H       2.3648094 *  2.4863008 *  4.3904039    4.3228018    4.5334742  
   9 H       3.0523230    2.4796627 *  2.4985087 *  3.0677078    3.7226147  
  10 H       2.4796042 *  3.0523480    3.0676666    2.4985044 *  3.7225923  
  11 H       0.0000000    1.7798975 *  3.0522993    2.4796841 *  2.4796039 *
  12 H       1.7798975 *  0.0000000    2.4796841 *  3.0524098    2.4796432 *
  13 H       3.0522993    2.4796841 *  0.0000000    1.7798975 *  1.7799293 *
  14 H       2.4796841 *  3.0524098    1.7798975 *  0.0000000    1.7799694 *
  15 H       2.4796039 *  2.4796432 *  1.7799293 *  1.7799694 *  0.0000000  

  * ... LESS THAN  3.000


     ATOMIC BASIS SET
     ----------------
 THE CONTRACTED PRIMITIVE FUNCTIONS HAVE BEEN UNNORMALIZED
 THE CONTRACTED BASIS FUNCTIONS ARE NOW NORMALIZED TO UNITY

  SHELL TYPE  PRIMITIVE        EXPONENT          CONTRACTION COEFFICIENT(S)

 O         

      1   S       1           130.7093214    0.154328967295
      1   S       2            23.8088661    0.535328142282
      1   S       3             6.4436083    0.444634542185

      2   L       4             5.0331513   -0.099967229187    0.155916274999
      2   L       5             1.1695961    0.399512826089    0.607683718598
      2   L       6             0.3803890    0.700115468880    0.391957393099

 H         

      3   S       7             3.4252509    0.154328967295
      3   S       8             0.6239137    0.535328142282
      3   S       9             0.1688554    0.444634542185

 C         

      4   S      10            71.6168373    0.154328967295
      4   S      11            13.0450963    0.535328142282
      4   S      12             3.5305122    0.444634542185

      5   L      13             2.9412494   -0.099967229187    0.155916274999
      5   L      14             0.6834831    0.399512826089    0.607683718598
      5   L      15             0.2222899    0.700115468880    0.391957393099

 C         

      6   S      16            71.6168373    0.154328967295
      6   S      17            13.0450963    0.535328142282
      6   S      18             3.5305122    0.444634542185

      7   L      19             2.9412494   -0.099967229187    0.155916274999
      7   L      20             0.6834831    0.399512826089    0.607683718598
      7   L      21             0.2222899    0.700115468880    0.391957393099

 C         

      8   S      22            71.6168373    0.154328967295
      8   S      23            13.0450963    0.535328142282
      8   S      24             3.5305122    0.444634542185

      9   L      25             2.9412494   -0.099967229187    0.155916274999
      9   L      26             0.6834831    0.399512826089    0.607683718598
      9   L      27             0.2222899    0.700115468880    0.391957393099

 H         

     10   S      28             3.4252509    0.154328967295
     10   S      29             0.6239137    0.535328142282
     10   S      30             0.1688554    0.444634542185

 O         

     11   S      31           130.7093214    0.154328967295
     11   S      32            23.8088661    0.535328142282
     11   S      33             6.4436083    0.444634542185

     12   L      34             5.0331513   -0.099967229187    0.155916274999
     12   L      35             1.1695961    0.399512826089    0.607683718598
     12   L      36             0.3803890    0.700115468880    0.391957393099

 H         

     13   S      37             3.4252509    0.154328967295
     13   S      38             0.6239137    0.535328142282
     13   S      39             0.1688554    0.444634542185

 H         

     14   S      40             3.4252509    0.154328967295
     14   S      41             0.6239137    0.535328142282
     14   S      42             0.1688554    0.444634542185

 H         

     15   S      43             3.4252509    0.154328967295
     15   S      44             0.6239137    0.535328142282
     15   S      45             0.1688554    0.444634542185

 H         

     16   S      46             3.4252509    0.154328967295
     16   S      47             0.6239137    0.535328142282
     16   S      48             0.1688554    0.444634542185

 H         

     17   S      49             3.4252509    0.154328967295
     17   S      50             0.6239137    0.535328142282
     17   S      51             0.1688554    0.444634542185

 H         

     18   S      52             3.4252509    0.154328967295
     18   S      53             0.6239137    0.535328142282
     18   S      54             0.1688554    0.444634542185

 H         

     19   S      55             3.4252509    0.154328967295
     19   S      56             0.6239137    0.535328142282
     19   S      57             0.1688554    0.444634542185

 H         

     20   S      58             3.4252509    0.154328967295
     20   S      59             0.6239137    0.535328142282
     20   S      60             0.1688554    0.444634542185

 TOTAL NUMBER OF BASIS SET SHELLS             =   20
 NUMBER OF CARTESIAN GAUSSIAN BASIS FUNCTIONS =   35
 NUMBER OF ELECTRONS                          =   44
 CHARGE OF MOLECULE                           =    0
 SPIN MULTIPLICITY                            =    1
 NUMBER OF OCCUPIED ORBITALS (ALPHA)          =   22
 NUMBER OF OCCUPIED ORBITALS (BETA )          =   22
 TOTAL NUMBER OF ATOMS                        =   15
 THE NUCLEAR REPULSION ENERGY IS      205.9795636452

     $CONTRL OPTIONS
     ---------------
 SCFTYP=RHF          RUNTYP=OPTIMIZE     EXETYP=RUN     
 MPLEVL=       0     CITYP =NONE         CCTYP =NONE         VBTYP =NONE    
 DFTTYP=NONE         TDDFT =NONE    
 MULT  =       1     ICHARG=       0     NZVAR =       0     COORD =UNIQUE  
 PP    =NONE         RELWFN=NONE         LOCAL =NONE         NUMGRD=       F
 ISPHER=      -1     NOSYM =       0     MAXIT =     200     UNITS =ANGS    
 PLTORB=       F     MOLPLT=       F     AIMPAC=       F     FRIEND=        
 NPRINT=       7     IREST =       0     GEOM  =INPUT   
 NORMF =       0     NORMP =       0     ITOL  =      20     ICUT  =       9
 INTTYP=BEST         GRDTYP=BEST         QMTTOL= 1.0E-06

     $SYSTEM OPTIONS
     ---------------
  REPLICATED MEMORY=     1000000 WORDS (ON EVERY NODE).
 DISTRIBUTED MEMDDI=           0 MILLION WORDS IN AGGREGATE,
 MEMDDI DISTRIBUTED OVER   1 PROCESSORS IS           0 WORDS/PROCESSOR.
 TOTAL MEMORY REQUESTED ON EACH PROCESSOR=     1000000 WORDS.
 TIMLIM=      525600.00 MINUTES, OR     365.0 DAYS.
 PARALL= F  BALTYP=  DLB     KDIAG=    0  COREFL= F
 MXSEQ2=     300 MXSEQ3=     150  mem10=         0

          ----------------
          PROPERTIES INPUT
          ----------------

     MOMENTS            FIELD           POTENTIAL          DENSITY
 IEMOM =       1   IEFLD =       0   IEPOT =       0   IEDEN =       0
 WHERE =COMASS     WHERE =NUCLEI     WHERE =NUCLEI     WHERE =NUCLEI  
 OUTPUT=BOTH       OUTPUT=BOTH       OUTPUT=BOTH       OUTPUT=BOTH    
 IEMINT=       0   IEFINT=       0                     IEDINT=       0
                                                       MORB  =       0
          EXTRAPOLATION IN EFFECT
          SOSCF IN EFFECT
 ORBITAL PRINTING OPTION: NPREO=     1    35     2     1

     -------------------------------
     INTEGRAL TRANSFORMATION OPTIONS
     -------------------------------
     NWORD  =            0
     CUTOFF = 1.0E-09     MPTRAN =       0
     DIRTRF =       F     AOINTS =DUP     

          ----------------------
          INTEGRAL INPUT OPTIONS
          ----------------------
 NOPK  =       1 NORDER=       0 SCHWRZ=       T

     ------------------------------------------
     THE POINT GROUP IS C1 , NAXIS= 0, ORDER= 1
     ------------------------------------------

     DIMENSIONS OF THE SYMMETRY SUBSPACES ARE
 A   =   35

 ..... DONE SETTING UP THE RUN .....
 STEP CPU TIME =     0.00 TOTAL CPU TIME =          0.0 (      0.0 MIN)
 TOTAL WALL CLOCK TIME=          0.0 SECONDS, CPU UTILIZATION IS     0.00%


          -----------------------------
          STATIONARY POINT LOCATION RUN
          -----------------------------

 OBTAINING INITIAL HESSIAN, HESS=GUESS   
 CARTESIAN COORDINATE OPTIMIZATION USING BADGER'S RULE FORCE CONSTANT GUESS

          PARAMETERS CONTROLLING GEOMETRY SEARCH ARE
          METHOD =QA                  UPHESS =BFGS    
          NNEG   =         0          NFRZ   =         0
          NSTEP  =       200          IFOLOW =         1
          HESS   =GUESS               RESTAR =         F
          IHREP  =         0          HSSEND =         F
          NPRT   =         0          NPUN   =         0
          OPTTOL = 1.000E-04          RMIN   = 1.500E-03
          RMAX   = 1.000E-01          RLIM   = 7.000E-02
          DXMAX  = 3.000E-01          PURIFY =         F
          MOVIE  =         F          TRUPD  =         T
          TRMAX  = 5.000E-01          TRMIN  = 5.000E-02
          ITBMAT =         5          STPT   =         F
          STSTEP = 1.000E-02          PROJCT=          T

 BEGINNING GEOMETRY SEARCH POINT NSERCH=   0 ...

 COORDINATES OF ALL ATOMS ARE (ANGS)
   ATOM   CHARGE       X              Y              Z
 ------------------------------------------------------------
 O           8.0  -4.1766000000   1.0472000000   0.1796000000
 H           1.0  -4.4314000000   1.9086000000  -0.1783000000
 C           6.0  -2.9248000000   0.5616000000  -0.3097000000
 C           6.0  -2.6247000000  -0.8001000000   0.3200000000
 C           6.0  -1.2845000000  -1.3200000000  -0.2038000000
 H           1.0  -4.4074000000  -0.8923800000   1.5707100000
 O           8.0  -4.9922700000  -0.1223800000   1.5796600000
 H           1.0  -4.5694000000   0.4996900000   0.9718200000
 H           1.0  -2.9740000000   0.4578000000  -1.3936000000
 H           1.0  -2.1347000000   1.2652000000  -0.0475000000
 H           1.0  -2.5756000000  -0.6963000000   1.4039000000
 H           1.0  -3.4149000000  -1.5037000000   0.0579000000
 H           1.0  -1.3336000000  -1.4238000000  -1.2877000000
 H           1.0  -0.4943000000  -0.6164000000   0.0583000000
 H           1.0  -1.0707000000  -2.2901000000   0.2448000000

          ********************
          1 ELECTRON INTEGRALS
          ********************
 ...... END OF ONE-ELECTRON INTEGRALS ......
 STEP CPU TIME =     0.00 TOTAL CPU TIME =          0.0 (      0.0 MIN)
 TOTAL WALL CLOCK TIME=          0.0 SECONDS, CPU UTILIZATION IS     0.00%

          -------------
          GUESS OPTIONS
          -------------
          GUESS =HUCKEL            NORB  =       0          NORDER=       0
          MIX   =       F          PRTMO =       F          PUNMO =       F
          TOLZ  = 1.0E-08          TOLE  = 1.0E-05
          SYMDEN=       F          PURIFY=       F

 INITIAL GUESS ORBITALS GENERATED BY HUCKEL   ROUTINE.
 HUCKEL GUESS REQUIRES     23880 WORDS.

 SYMMETRIES FOR INITIAL GUESS ORBITALS FOLLOW.   BOTH SET(S).
    22 ORBITALS ARE OCCUPIED (    5 CORE ORBITALS).
     6=A        7=A        8=A        9=A       10=A       11=A       12=A   
    13=A       14=A       15=A       16=A       17=A       18=A       19=A   
    20=A       21=A       22=A       23=A       24=A       25=A       26=A   
    27=A       28=A       29=A       30=A       31=A       32=A   
 ...... END OF INITIAL ORBITAL SELECTION ......
 STEP CPU TIME =     0.00 TOTAL CPU TIME =          0.0 (      0.0 MIN)
 TOTAL WALL CLOCK TIME=          0.0 SECONDS, CPU UTILIZATION IS     0.00%

                    ----------------------
                    AO INTEGRAL TECHNOLOGY
                    ----------------------
     S,P,L SHELL ROTATED AXIS INTEGRALS, REPROGRAMMED BY
        KAZUYA ISHIMURA (IMS) AND JOSE SIERRA (SYNSTAR).
     S,P,D,L SHELL ROTATED AXIS INTEGRALS PROGRAMMED BY
        KAZUYA ISHIMURA (INSTITUTE FOR MOLECULAR SCIENCE).
     S,P,D,F,G SHELL TO TOTAL QUARTET ANGULAR MOMENTUM SUM 5,
        ERIC PROGRAM BY GRAHAM FLETCHER (ELORET AND NASA ADVANCED
        SUPERCOMPUTING DIVISION, AMES RESEARCH CENTER).
     S,P,D,F,G,L SHELL GENERAL RYS QUADRATURE PROGRAMMED BY
        MICHEL DUPUIS (PACIFIC NORTHWEST NATIONAL LABORATORY).

          --------------------
          2 ELECTRON INTEGRALS
          --------------------

 THE -PK- OPTION IS OFF, THE INTEGRALS ARE NOT IN SUPERMATRIX FORM.
 STORING   15000 INTEGRALS/RECORD ON DISK, USING 12 BYTES/INTEGRAL.
 TWO ELECTRON INTEGRAL EVALUATION REQUIRES   89566 WORDS OF MEMORY.
 SCHWARZ INEQUALITY OVERHEAD:       623 INTEGRALS, T=        0.00
 II,JST,KST,LST =  1  1  1  1 NREC =         1 INTLOC =    1
 II,JST,KST,LST =  2  1  1  1 NREC =         1 INTLOC =    2
 II,JST,KST,LST =  3  1  1  1 NREC =         1 INTLOC =   34
 II,JST,KST,LST =  4  1  1  1 NREC =         1 INTLOC =  145
 II,JST,KST,LST =  5  1  1  1 NREC =         1 INTLOC =  306
 II,JST,KST,LST =  6  1  1  1 NREC =         1 INTLOC = 2004
 II,JST,KST,LST =  7  1  1  1 NREC =         1 INTLOC = 2761
 II,JST,KST,LST =  8  1  1  1 NREC =         1 INTLOC = 8781
 II,JST,KST,LST =  9  1  1  1 NREC =         1 INTLOC =10268
 II,JST,KST,LST = 10  1  1  1 NREC =         2 INTLOC = 9347
 II,JST,KST,LST = 11  1  1  1 NREC =         2 INTLOC =14446
 II,JST,KST,LST = 12  1  1  1 NREC =         3 INTLOC = 3572
 II,JST,KST,LST = 13  1  1  1 NREC =         5 INTLOC = 3203
 II,JST,KST,LST = 14  1  1  1 NREC =         5 INTLOC =13623
 II,JST,KST,LST = 15  1  1  1 NREC =         6 INTLOC =10205
 II,JST,KST,LST = 16  1  1  1 NREC =         7 INTLOC = 8084
 II,JST,KST,LST = 17  1  1  1 NREC =         8 INTLOC = 7406
 II,JST,KST,LST = 18  1  1  1 NREC =         9 INTLOC = 8195
 II,JST,KST,LST = 19  1  1  1 NREC =        10 INTLOC = 9785
 II,JST,KST,LST = 20  1  1  1 NREC =        11 INTLOC =12919
 SCHWARZ INEQUALITY TEST SKIPPED        2519 INTEGRAL BLOCKS.
 TOTAL NUMBER OF NONZERO TWO-ELECTRON INTEGRALS =              182471
         13 INTEGRAL RECORDS WERE STORED ON DISK FILE  8.
  ...... END OF TWO-ELECTRON INTEGRALS .....
 STEP CPU TIME =     0.05 TOTAL CPU TIME =          0.1 (      0.0 MIN)
 TOTAL WALL CLOCK TIME=          0.1 SECONDS, CPU UTILIZATION IS    83.33%

          --------------------------
                 RHF SCF CALCULATION
          --------------------------

     NUCLEAR ENERGY =       205.9795636452
     MAXIT =  200     NPUNCH=    2
     EXTRAP=T  DAMP=F  SHIFT=F  RSTRCT=F  DIIS=F  DEM=F  SOSCF=T
     DENSITY MATRIX CONV=  1.00E-05
     SOSCF WILL OPTIMIZE     286 ORBITAL ROTATIONS, SOGTOL=   0.250
     MEMORY REQUIRED FOR RHF ITERS=     40209 WORDS.

 ITER EX DEM     TOTAL ENERGY        E CHANGE  DENSITY CHANGE     ORB. GRAD
   1  0  0     -265.0548235738  -265.0548235738   0.772152575   0.000000000
          ---------------START SECOND ORDER SCF---------------
   2  1  0     -265.5402131722    -0.4853895984   0.161079425   0.042419295
   3  2  0     -265.5645251332    -0.0243119610   0.082712352   0.016232961
   4  3  0     -265.5663161172    -0.0017909840   0.004792458   0.002159814
   5  4  0     -265.5663596360    -0.0000435188   0.001845178   0.000502505
   6  5  0     -265.5663651793    -0.0000055432   0.000224902   0.000058904
   7  6  0     -265.5663652870    -0.0000001078   0.000075852   0.000023026
   8  7  0     -265.5663652956    -0.0000000085   0.000010628   0.000004234
   9  8  0     -265.5663652958    -0.0000000002   0.000004456   0.000000842
  10  9  0     -265.5663652958    -0.0000000000   0.000000963   0.000000201

          -----------------
          DENSITY CONVERGED
          -----------------
     TIME TO FORM FOCK OPERATORS=       0.0 SECONDS (       0.0 SEC/ITER)
     TIME TO SOLVE SCF EQUATIONS=       0.0 SECONDS (       0.0 SEC/ITER)

 FINAL RHF ENERGY IS     -265.5663652958 AFTER  10 ITERATIONS

          ------------
          EIGENVECTORS
          ------------

                      1          2          3          4          5
                  -20.3559   -19.9927   -11.1381   -11.0688   -11.0549
                     A          A          A          A          A   
    1  O  1  S    0.993841  -0.000962   0.000416  -0.000031   0.000010
    2  O  1  S    0.028405   0.002310  -0.004256   0.000411  -0.000069
    3  O  1  X    0.000860  -0.000628  -0.002689   0.000043  -0.000063
    4  O  1  Y    0.000642  -0.000833   0.001095  -0.000064   0.000042
    5  O  1  Z   -0.000331   0.001368   0.001077   0.000043   0.000020
    6  H  2  S   -0.005505   0.000326  -0.000743  -0.000058  -0.000011
    7  C  3  S    0.000503  -0.000032   0.992138   0.002508   0.000574
    8  C  3  S   -0.004095   0.000250   0.036000  -0.005805   0.000002
    9  C  3  X    0.003302  -0.000167   0.000388  -0.000805  -0.000199
   10  C  3  Y   -0.001269   0.000000   0.000005   0.003870   0.000051
   11  C  3  Z   -0.001284   0.000137  -0.000230  -0.001817   0.000094
   12  C  4  S   -0.000036  -0.000026  -0.001516   0.991867   0.010621
   13  C  4  S    0.000393   0.000023  -0.005654   0.037607  -0.005352
   14  C  4  X   -0.000366  -0.000364   0.000899  -0.000077  -0.003757
   15  C  4  Y    0.000296   0.000115  -0.003730   0.000158   0.001478
   16  C  4  Z    0.000049   0.000164   0.001676  -0.000050   0.001455
   17  C  5  S    0.000005  -0.000006  -0.000460  -0.009628   0.991897
   18  C  5  S    0.000014   0.000087   0.000049  -0.006119   0.037738
   19  C  5  X    0.000009  -0.000044  -0.000017   0.003750   0.000059
   20  C  5  Y   -0.000094   0.000040  -0.000198  -0.001448   0.000016
   21  C  5  Z    0.000047  -0.000000   0.000129  -0.001470  -0.000047
   22  H  6  S    0.000286  -0.006171  -0.000022  -0.000475  -0.000066
   23  O  7  S    0.000516   0.993906  -0.000044  -0.000043  -0.000003
   24  O  7  S    0.002216   0.027942   0.000358   0.000403   0.000034
   25  O  7  X    0.000571   0.003855   0.000078   0.000063  -0.000002
   26  O  7  Y    0.001042  -0.000279   0.000170  -0.000022   0.000004
   27  O  7  Z   -0.000800  -0.002449  -0.000139  -0.000013   0.000000
   28  H  8  S   -0.006580  -0.008384  -0.000888  -0.000473  -0.000075
   29  H  9  S    0.000367   0.000017  -0.006947   0.000036   0.000021
   30  H 10  S    0.000366   0.000016  -0.006954   0.000035   0.000021
   31  H 11  S    0.000074   0.000536   0.000033  -0.006906   0.000007
   32  H 12  S    0.000008   0.000477   0.000023  -0.006920   0.000005
   33  H 13  S   -0.000027  -0.000018   0.000034   0.000105  -0.006967
   34  H 14  S   -0.000027  -0.000017   0.000034   0.000106  -0.006967
   35  H 15  S   -0.000033  -0.000009  -0.000142   0.000147  -0.006943

                      6          7          8          9         10
                   -1.3920    -1.1286    -1.0448    -0.9096    -0.8017
                     A          A          A          A          A   
    1  O  1  S   -0.225127   0.044984   0.043782  -0.045680  -0.024513
    2  O  1  S    0.803289  -0.183153  -0.175700   0.192818   0.112500
    3  O  1  X    0.036271  -0.057616   0.072355  -0.166744  -0.115085
    4  O  1  Y    0.015490  -0.067391  -0.060558   0.103281  -0.051569
    5  O  1  Z   -0.013696   0.087221  -0.014181   0.051059   0.117547
    6  H  2  S    0.118313  -0.068886  -0.070269   0.115976  -0.006680
    7  C  3  S   -0.068354   0.035860  -0.112028   0.149171   0.081005
    8  C  3  S    0.166516  -0.102883   0.314592  -0.453579  -0.261766
    9  C  3  X   -0.070604   0.028189   0.049232  -0.016750  -0.035424
   10  C  3  Y    0.028415  -0.024566  -0.078501  -0.011439  -0.166093
   11  C  3  Z    0.027924  -0.001821   0.016869   0.016997   0.124913
   12  C  4  S   -0.014287  -0.000283  -0.164070  -0.004128  -0.139443
   13  C  4  S    0.032648   0.001163   0.444495   0.011566   0.434008
   14  C  4  X   -0.007052  -0.006036   0.028869   0.105774  -0.105811
   15  C  4  Y    0.014330  -0.008283   0.027249  -0.120715  -0.042357
   16  C  4  Z   -0.003986   0.009902  -0.033856   0.006099   0.092796
   17  C  5  S   -0.002073   0.001524  -0.120506  -0.157445   0.091919
   18  C  5  S    0.004868  -0.003984   0.324284   0.454322  -0.281857
   19  C  5  X   -0.002072   0.000764  -0.057029   0.013838  -0.118123
   20  C  5  Y    0.001227  -0.001253   0.030299  -0.018159   0.016576
   21  C  5  Z    0.000558   0.000309   0.017382   0.002222   0.063996
   22  H  6  S    0.013618   0.165566   0.014853  -0.031925  -0.039034
   23  O  7  S   -0.036242  -0.218535  -0.004867   0.017653   0.044938
   24  O  7  S    0.114050   0.771308   0.020575  -0.070758  -0.182881
   25  O  7  X    0.024696   0.102878   0.007162  -0.008860   0.011157
   26  O  7  Y    0.014093   0.002730  -0.011329   0.019596   0.023657
   27  O  7  Z   -0.025832  -0.070807   0.002054  -0.006073  -0.022580
   28  H  8  S    0.089680   0.181482  -0.025790   0.037503   0.051756
   29  H  9  S    0.018704  -0.020332   0.075184  -0.137192  -0.149402
   30  H 10  S    0.018847  -0.019910   0.075217  -0.137162  -0.147406
   31  H 11  S    0.004572   0.006047   0.098722   0.003256   0.187889
   32  H 12  S    0.004610   0.004117   0.098104   0.003874   0.187259
   33  H 13  S    0.000600  -0.001051   0.074786   0.130940  -0.131079
   34  H 14  S    0.000596  -0.001034   0.074798   0.130905  -0.130821
   35  H 15  S    0.000492  -0.000408   0.067986   0.142525  -0.099184

                     11         12         13         14         15
                   -0.7275    -0.6631    -0.6443    -0.5725    -0.5602
                     A          A          A          A          A   
    1  O  1  S    0.022927   0.005447  -0.001790  -0.005611   0.004791
    2  O  1  S   -0.116870  -0.027206   0.013080   0.027533  -0.023928
    3  O  1  X   -0.053811   0.082831   0.453828  -0.186107  -0.141500
    4  O  1  Y    0.470421   0.210520  -0.125190  -0.177957  -0.071249
    5  O  1  Z   -0.333977   0.250604  -0.202689  -0.273899   0.063764
    6  H  2  S    0.375996   0.050720  -0.137460   0.003562  -0.048142
    7  C  3  S    0.013543  -0.001903   0.010101   0.002172  -0.011729
    8  C  3  S   -0.055258   0.000414  -0.004884  -0.005822   0.028733
    9  C  3  X    0.065513   0.262616  -0.321938  -0.121855   0.070292
   10  C  3  Y    0.055447   0.181610   0.167833  -0.175732   0.177741
   11  C  3  Z   -0.112196   0.280807   0.188838  -0.147232  -0.250926
   12  C  4  S   -0.043496  -0.004217   0.013707  -0.001529   0.009497
   13  C  4  S    0.140202   0.013944  -0.045910   0.006089  -0.036338
   14  C  4  X    0.000667   0.148808  -0.074323   0.129135   0.039571
   15  C  4  Y   -0.080190   0.131357  -0.072619   0.181339  -0.198024
   16  C  4  Z    0.034745   0.196552   0.171787   0.166235   0.157441
   17  C  5  S    0.026173   0.004537  -0.018451  -0.000461   0.003101
   18  C  5  S   -0.083580  -0.014627   0.058806   0.002010  -0.011664
   19  C  5  X   -0.068718   0.054820   0.095089   0.190465  -0.025257
   20  C  5  Y    0.007699   0.088964  -0.134303   0.250347  -0.304176
   21  C  5  Z    0.033287   0.114071   0.072345   0.233518   0.314996
   22  H  6  S    0.156750  -0.017647   0.147971   0.012366  -0.089646
   23  O  7  S   -0.056990   0.002560  -0.016990  -0.001907   0.013769
   24  O  7  S    0.242906  -0.011943   0.074992   0.009733  -0.062622
   25  O  7  X   -0.021381   0.009141   0.011790  -0.006449   0.009536
   26  O  7  Y   -0.135849   0.024410  -0.141514  -0.018235   0.101290
   27  O  7  Z    0.090906   0.008495   0.075275  -0.000603  -0.063666
   28  H  8  S   -0.233530   0.024904  -0.182966  -0.023069   0.123085
   29  H  9  S    0.047312  -0.222896  -0.167925   0.126156   0.213823
   30  H 10  S    0.018137   0.279582  -0.082809  -0.188660   0.110750
   31  H 11  S    0.071562   0.163375   0.106657   0.156903   0.101254
   32  H 12  S    0.081390  -0.171640   0.029825  -0.203508   0.035883
   33  H 13  S   -0.049571  -0.103322  -0.029512  -0.222658  -0.245323
   34  H 14  S   -0.054265   0.093633   0.020847   0.300235  -0.122184
   35  H 15  S   -0.033742  -0.021099   0.148352  -0.074569   0.335884

                     16         17         18         19         20
                   -0.4872    -0.4806    -0.4717    -0.4383    -0.3789
                     A          A          A          A          A   
    1  O  1  S   -0.010404   0.003329  -0.007138   0.011939  -0.046337
    2  O  1  S    0.051782  -0.016790   0.037296  -0.062803   0.253492
    3  O  1  X    0.186561   0.194534   0.072465   0.416888  -0.138912
    4  O  1  Y   -0.069438   0.158569  -0.108438   0.405699  -0.120136
    5  O  1  Z   -0.084948   0.239057   0.037383   0.520143   0.279003
    6  H  2  S   -0.075304  -0.007590  -0.124873   0.034505  -0.105287
    7  C  3  S    0.009762   0.004636   0.034677  -0.004159   0.009050
    8  C  3  S   -0.018151  -0.017273  -0.132765   0.017040  -0.037117
    9  C  3  X   -0.107766  -0.011787  -0.065082  -0.158035   0.103827
   10  C  3  Y    0.049532   0.061431   0.381266  -0.164931  -0.028890
   11  C  3  Z    0.046459  -0.012111  -0.236526  -0.184359  -0.067690
   12  C  4  S   -0.022458  -0.000747   0.001653  -0.002844   0.020652
   13  C  4  S    0.091325   0.002066  -0.010685   0.011684  -0.079565
   14  C  4  X    0.449201  -0.182070   0.086102   0.068239   0.111907
   15  C  4  Y   -0.098270  -0.220910  -0.338462   0.114736  -0.014380
   16  C  4  Z   -0.227919  -0.260264   0.243433   0.101862  -0.065179
   17  C  5  S   -0.018579   0.000088  -0.001101  -0.000039  -0.007685
   18  C  5  S    0.077389  -0.000536   0.003938  -0.000000   0.032935
   19  C  5  X   -0.443623   0.179774  -0.083414  -0.009199  -0.094533
   20  C  5  Y    0.126394   0.221509   0.282076  -0.034066   0.014696
   21  C  5  Z    0.205452   0.257979  -0.186800  -0.021259   0.054811
   22  H  6  S   -0.074546  -0.006379  -0.014470  -0.022374   0.518598
   23  O  7  S   -0.033462   0.000071   0.015208  -0.002706   0.075944
   24  O  7  S    0.157928  -0.001402  -0.073255   0.011490  -0.388186
   25  O  7  X   -0.082063  -0.000773   0.040358   0.033846   0.282034
   26  O  7  Y    0.034305   0.008417   0.043326   0.051334  -0.510276
   27  O  7  Z    0.040679  -0.002990  -0.042314   0.058425   0.041357
   28  H  8  S   -0.026262   0.013270   0.068721   0.019919  -0.131824
   29  H  9  S   -0.079770  -0.003029   0.152276   0.284788   0.070981
   30  H 10  S   -0.067683   0.021489   0.082994  -0.340144   0.028742
   31  H 11  S   -0.173741  -0.281604   0.215812   0.141305  -0.057730
   32  H 12  S   -0.164516   0.332109   0.097087  -0.169531  -0.060803
   33  H 13  S   -0.167150  -0.291044   0.175960   0.040654  -0.042361
   34  H 14  S   -0.160829   0.341458   0.084048  -0.053368  -0.037392
   35  H 15  S   -0.078828  -0.055404  -0.344321   0.020917   0.009709

                     21         22         23         24         25
                   -0.2493    -0.2306     0.4840     0.5981     0.5988
                     A          A          A          A          A   
    1  O  1  S    0.059049  -0.015068  -0.126982  -0.002161   0.002579
    2  O  1  S   -0.333706   0.081826   0.810329   0.007355   0.000305
    3  O  1  X    0.152443  -0.082641   0.330781   0.094916  -0.350135
    4  O  1  Y    0.141040  -0.075916   0.238738  -0.148734   0.265266
    5  O  1  Z   -0.285129  -0.002766  -0.341787  -0.071717   0.011050
    6  H  2  S    0.155735  -0.040058  -0.696277   0.157574  -0.395373
    7  C  3  S   -0.007948   0.002620   0.052922  -0.001984   0.002637
    8  C  3  S    0.034507  -0.011558  -0.227214   0.015118  -0.024147
    9  C  3  X   -0.081771   0.028873   0.629362   0.406528  -0.209485
   10  C  3  Y    0.023875  -0.004896  -0.098525  -0.043682   0.834543
   11  C  3  Z    0.045040  -0.004985  -0.333770   0.541136  -0.046117
   12  C  4  S    0.002454   0.001106  -0.021680   0.019738  -0.048405
   13  C  4  S   -0.003267  -0.006911   0.101547  -0.115882   0.285032
   14  C  4  X    0.027127  -0.019376   0.187751   0.378796  -0.134762
   15  C  4  Y    0.042197  -0.025973   0.061405   0.007269   0.710005
   16  C  4  Z   -0.063492  -0.021225  -0.153287   0.532543  -0.014066
   17  C  5  S   -0.007696   0.001311   0.043162   0.017083  -0.040973
   18  C  5  S    0.033726  -0.005771  -0.236519  -0.099939   0.239826
   19  C  5  X   -0.046959   0.008413   0.249545   0.228827  -0.013001
   20  C  5  Y    0.014791  -0.001113  -0.013885   0.057642   0.364499
   21  C  5  Z    0.022027  -0.000150  -0.147053   0.355244   0.016572
   22  H  6  S    0.081665  -0.004683  -0.043140  -0.037466   0.058036
   23  O  7  S    0.052244  -0.006165  -0.018790  -0.006534   0.009036
   24  O  7  S   -0.274210   0.032256   0.112841   0.041396  -0.057324
   25  O  7  X    0.703773   0.402652   0.088930   0.045579  -0.041237
   26  O  7  Y    0.259563   0.330687   0.080290  -0.007934   0.026843
   27  O  7  Z   -0.379922   0.843982  -0.110694  -0.000249   0.026792
   28  H  8  S    0.231087  -0.032959  -0.114639  -0.030051   0.041395
   29  H  9  S   -0.065607  -0.007303  -0.144847   0.558608   0.038893
   30  H 10  S   -0.033961   0.032740  -0.143606  -0.415148  -0.371080
   31  H 11  S   -0.047705   0.003635   0.148597  -0.550569  -0.219060
   32  H 12  S   -0.036091   0.014018   0.148198   0.531120   0.240606
   33  H 13  S   -0.018999  -0.005641  -0.041708   0.440192  -0.060291
   34  H 14  S   -0.012318   0.009308  -0.042165  -0.258773  -0.358211
   35  H 15  S    0.001418   0.000674   0.151150  -0.114457   0.256978

                     26         27         28         29         30
                    0.6319     0.6539     0.6942     0.7088     0.7239
                     A          A          A          A          A   
    1  O  1  S    0.038762   0.035895  -0.000017   0.018202   0.013568
    2  O  1  S   -0.277323  -0.229568   0.000104  -0.109272  -0.078609
    3  O  1  X    0.372507  -0.167512   0.055367  -0.155599  -0.326217
    4  O  1  Y   -0.556835  -0.067253   0.047561   0.125440   0.292568
    5  O  1  Z    0.088294   0.142850   0.077648   0.017033   0.033611
    6  H  2  S    0.726575   0.148082   0.000713  -0.067363  -0.276684
    7  C  3  S    0.053455  -0.132253   0.002190  -0.184734  -0.001862
    8  C  3  S   -0.291161   0.809414  -0.013488   1.147878  -0.051841
    9  C  3  X    0.215956   0.050847  -0.358894   0.230610  -0.560352
   10  C  3  Y    0.150987   0.300549  -0.344161  -0.089866  -0.116407
   11  C  3  Z   -0.218058  -0.213196  -0.578981  -0.094196   0.412774
   12  C  4  S    0.026606  -0.095837  -0.002975   0.168374   0.054365
   13  C  4  S   -0.180586   0.587072   0.018543  -1.029402  -0.372405
   14  C  4  X    0.265784   0.405715   0.067492   0.000834   0.762608
   15  C  4  Y    0.281210  -0.290622   0.073252  -0.135123  -0.052242
   16  C  4  Z   -0.319562  -0.081206   0.122073   0.078617  -0.448306
   17  C  5  S    0.022868  -0.010198  -0.000644   0.008083   0.082460
   18  C  5  S   -0.135930   0.094516   0.004239  -0.071134  -0.516937
   19  C  5  X    0.167624   0.674342   0.371944  -0.415528   0.325522
   20  C  5  Y    0.347281  -0.366897   0.348830   0.148199  -0.098429
   21  C  5  Z   -0.298741  -0.203891   0.595905   0.193760  -0.131606
   22  H  6  S    0.116844  -0.123821  -0.005394   0.302005   0.041750
   23  O  7  S    0.023707  -0.008489  -0.000237   0.031054   0.000703
   24  O  7  S   -0.150541   0.054467   0.001220  -0.202743  -0.004922
   25  O  7  X   -0.127003   0.073871   0.004701  -0.170716  -0.000637
   26  O  7  Y    0.025811  -0.137023  -0.006182   0.200926   0.050839
   27  O  7  Z    0.073366   0.023521   0.004574   0.011588  -0.029218
   28  H  8  S    0.120767   0.032027   0.005172   0.051061  -0.041337
   29  H  9  S   -0.061989  -0.537453  -0.584991  -0.601921   0.294202
   30  H 10  S   -0.070744  -0.535734   0.595099  -0.595695   0.301754
   31  H 11  S    0.351153  -0.144469  -0.134907   0.357796   0.495859
   32  H 12  S    0.373052  -0.148480   0.113925   0.360657   0.491621
   33  H 13  S   -0.214445  -0.197214   0.637409   0.213884   0.085493
   34  H 14  S   -0.232563  -0.192822  -0.636529   0.186423   0.071323
   35  H 15  S    0.487745  -0.407148  -0.008757   0.119277   0.128982

                     31         32         33         34         35
                    0.7386     0.7523     0.7921     0.8589     1.2724
                     A          A          A          A          A   
    1  O  1  S   -0.009348   0.004147   0.000192   0.006060   0.065582
    2  O  1  S    0.064867  -0.020101  -0.000928  -0.041711  -0.481698
    3  O  1  X   -0.019828  -0.144716   0.034706   0.037001   0.231741
    4  O  1  Y    0.126446   0.094143   0.037075   0.063248   0.378252
    5  O  1  Z   -0.062773   0.044930   0.059389  -0.074720  -0.507959
    6  H  2  S   -0.127488  -0.068623  -0.000797  -0.052081  -0.196989
    7  C  3  S   -0.014147  -0.064325  -0.001596   0.017981   0.007417
    8  C  3  S    0.076654   0.395017   0.009503  -0.112792  -0.051308
    9  C  3  X    0.002306  -0.068147  -0.252551  -0.045532   0.052074
   10  C  3  Y   -0.349740  -0.198446  -0.246610  -0.004328  -0.079091
   11  C  3  Z    0.213008   0.147721  -0.405163   0.015082   0.020399
   12  C  4  S    0.091536  -0.032987   0.005906  -0.098342   0.006675
   13  C  4  S   -0.551791   0.216757  -0.037835   0.657018  -0.038874
   14  C  4  X   -0.099322  -0.011520   0.433010   0.134277   0.044068
   15  C  4  Y   -0.186245  -0.531851   0.426659  -0.209483  -0.063184
   16  C  4  Z    0.165848   0.332015   0.691510   0.092302   0.012337
   17  C  5  S   -0.204369   0.079303  -0.004133   0.064110   0.002461
   18  C  5  S    1.302245  -0.503811   0.026129  -0.409077  -0.016524
   19  C  5  X    0.242075   0.017897  -0.320005   0.170838   0.015581
   20  C  5  Y    0.238993   0.738087  -0.305240  -0.010114   0.002244
   21  C  5  Z   -0.282625  -0.461158  -0.497034  -0.121752  -0.009446
   22  H  6  S    0.206982  -0.285322  -0.023219   1.020960  -0.185114
   23  O  7  S    0.015782  -0.031790  -0.002367   0.091050   0.087700
   24  O  7  S   -0.103916   0.208543   0.015193  -0.611729  -0.640920
   25  O  7  X   -0.098029   0.173100   0.023033  -0.464143  -0.247018
   26  O  7  Y    0.165226  -0.169952  -0.010059   0.579789  -0.605564
   27  O  7  Z   -0.019609  -0.028812   0.012351   0.024397   0.459415
   28  H  8  S   -0.019651  -0.082167  -0.000662   0.140933   1.541993
   29  H  9  S    0.152918  -0.061113  -0.334480   0.061436   0.022726
   30  H 10  S    0.148548  -0.046672   0.327494   0.074594   0.016950
   31  H 11  S    0.109831  -0.283384  -0.595232  -0.480601  -0.018259
   32  H 12  S    0.104086  -0.282138   0.639542  -0.415496  -0.001316
   33  H 13  S   -0.771648  -0.121138  -0.443385   0.075538  -0.001271
   34  H 14  S   -0.784207  -0.113825   0.430496   0.095097  -0.002305
   35  H 15  S   -0.300842   0.950489  -0.014738   0.170449   0.005377
 ...... END OF RHF CALCULATION ......
 STEP CPU TIME =     0.03 TOTAL CPU TIME =          0.1 (      0.0 MIN)
 TOTAL WALL CLOCK TIME=          0.1 SECONDS, CPU UTILIZATION IS   100.00%

     ----------------------------------------------------------------
     PROPERTY VALUES FOR THE RHF   SELF-CONSISTENT FIELD WAVEFUNCTION
     ----------------------------------------------------------------

          -----------------
          ENERGY COMPONENTS
          -----------------

         WAVEFUNCTION NORMALIZATION =       1.0000000000

                ONE ELECTRON ENERGY =    -773.5096683652
                TWO ELECTRON ENERGY =     301.9637394241
           NUCLEAR REPULSION ENERGY =     205.9795636452
                                      ------------------
                       TOTAL ENERGY =    -265.5663652958

 ELECTRON-ELECTRON POTENTIAL ENERGY =     301.9637394241
  NUCLEUS-ELECTRON POTENTIAL ENERGY =   -1037.9541667363
   NUCLEUS-NUCLEUS POTENTIAL ENERGY =     205.9795636452
                                      ------------------
             TOTAL POTENTIAL ENERGY =    -530.0108636669
               TOTAL KINETIC ENERGY =     264.4444983711
                 VIRIAL RATIO (V/T) =       2.0042423531

          ---------------------------------------
          MULLIKEN AND LOWDIN POPULATION ANALYSES
          ---------------------------------------

     ATOMIC MULLIKEN POPULATION IN EACH MOLECULAR ORBITAL

                      1          2          3          4          5

                  2.000000   2.000000   2.000000   2.000000   2.000000

    1             2.001773   0.000013  -0.000389   0.000000  -0.000000
    2            -0.000644   0.000000  -0.000013  -0.000000  -0.000000
    3            -0.000508   0.000000   2.003123  -0.000803  -0.000001
    4             0.000004   0.000001  -0.000767   2.003329  -0.000586
    5            -0.000000  -0.000000  -0.000000  -0.000589   2.003511
    6             0.000001  -0.000723  -0.000000  -0.000006  -0.000000
    7             0.000012   2.001687   0.000000   0.000000  -0.000000
    8            -0.000646  -0.000981  -0.000013  -0.000003  -0.000000
    9             0.000003   0.000000  -0.000971   0.000000   0.000000
   10             0.000003   0.000000  -0.000972   0.000000   0.000000
   11             0.000000   0.000002   0.000000  -0.000966   0.000000
   12             0.000000   0.000001   0.000000  -0.000967   0.000000
   13            -0.000000  -0.000000   0.000000   0.000001  -0.000976
   14            -0.000000  -0.000000   0.000000   0.000001  -0.000976
   15            -0.000000  -0.000000  -0.000000   0.000002  -0.000973

                      6          7          8          9         10

                  2.000000   2.000000   2.000000   2.000000   2.000000

    1             1.497567   0.117958   0.082593   0.190227   0.103404
    2             0.127043   0.022128   0.019933   0.042260   0.000375
    3             0.200622   0.038894   0.386571   0.502552   0.327570
    4             0.011097   0.002003   0.711261   0.145167   0.515887
    5             0.000263   0.000091   0.416175   0.581738   0.274745
    6             0.003418   0.192611   0.002792   0.004774  -0.000275
    7             0.052513   1.417865   0.001764   0.010698   0.056023
    8             0.094545   0.200384   0.001541   0.004058   0.011112
    9             0.005830   0.003561   0.043646   0.098997   0.096054
   10             0.005955   0.003367   0.043660   0.098858   0.093407
   11             0.000568   0.000717   0.078852   0.000082   0.158390
   12             0.000550   0.000390   0.078192   0.000106   0.157470
   13             0.000011   0.000014   0.047003   0.099395   0.080443
   14             0.000011   0.000013   0.047019   0.099337   0.080110
   15             0.000005   0.000001   0.038998   0.121750   0.045284

                     11         12         13         14         15

                  2.000000   2.000000   2.000000   2.000000   2.000000

    1             0.941809   0.285997   0.677502   0.312659   0.066088
    2             0.375940   0.006639   0.050011  -0.000000   0.002940
    3             0.071772   0.623374   0.503316   0.184845   0.283516
    4             0.071044   0.304165   0.155424   0.249833   0.210630
    5             0.039614   0.097005   0.128887   0.511336   0.621606
    6             0.079983   0.000874   0.065952   0.000294   0.017331
    7             0.188461   0.002670   0.098666   0.001238   0.050501
    8             0.147250   0.001767   0.080502   0.001106   0.031548
    9             0.008918   0.158748   0.093625   0.040538   0.121417
   10             0.001486   0.253650   0.024114   0.092444   0.033633
   11             0.020902   0.092025   0.039580   0.070330   0.030003
   12             0.027139   0.102369   0.003477   0.120292   0.004027
   13             0.009625   0.037876   0.002950   0.141946   0.165987
   14             0.011622   0.031280   0.001474   0.256956   0.040839
   15             0.004434   0.001563   0.074519   0.016183   0.319933

                     16         17         18         19         20

                  2.000000   2.000000   2.000000   2.000000   2.000000

    1             0.102713   0.237065   0.039037   1.140599   0.234353
    2             0.012614   0.000095   0.027075   0.002110   0.021194
    3             0.031411   0.009443   0.520944   0.228368   0.039564
    4             0.722322   0.401047   0.472984   0.069185   0.044430
    5             0.718967   0.409429   0.331400   0.004224   0.030021
    6             0.020071   0.000062  -0.000259   0.001071   0.526496
    7             0.054438   0.000245   0.020546   0.017527   1.047438
    8             0.002895   0.000247   0.007901   0.000678   0.026939
    9             0.016165   0.000005   0.054074   0.172262   0.010021
   10             0.011817   0.000995   0.016630   0.247500   0.001665
   11             0.078408   0.188559   0.112686   0.042532   0.005151
   12             0.070628   0.264388   0.023739   0.062671   0.005913
   13             0.072615   0.202288   0.072981   0.003772   0.003730
   14             0.067398   0.278689   0.016639   0.006517   0.002936
   15             0.017539   0.007442   0.283624   0.000983   0.000150

                     21         22

                  2.000000   2.000000

    1             0.244429   0.023650
    2             0.040979   0.002608
    3             0.020320   0.001869
    4             0.012438   0.002763
    5             0.006625   0.000162
    6             0.010276   0.000023
    7             1.570218   1.964859
    8             0.079138   0.001701
    9             0.007000   0.000083
   10             0.001855   0.001683
   11             0.003732  -0.000009
   12             0.002043   0.000410
   13             0.000660   0.000049
   14             0.000288   0.000148
   15             0.000000   0.000001

               ----- POPULATIONS IN EACH AO -----
                             MULLIKEN      LOWDIN
              1  O  1  S      1.99701     1.99468
              2  O  1  S      1.76193     1.58620
              3  O  1  X      1.43243     1.44302
              4  O  1  Y      1.39504     1.39903
              5  O  1  Z      1.71265     1.71162
              6  H  2  S      0.75329     0.81889
              7  C  3  S      1.99232     1.98484
              8  C  3  S      1.17374     1.03855
              9  C  3  X      0.81462     0.85793
             10  C  3  Y      0.99562     1.02474
             11  C  3  Z      1.00046     1.02336
             12  C  4  S      1.99204     1.98514
             13  C  4  S      1.17879     1.02557
             14  C  4  X      0.98706     1.01606
             15  C  4  Y      0.93987     0.98042
             16  C  4  Z      1.00589     1.03005
             17  C  5  S      1.99204     1.98537
             18  C  5  S      1.18382     1.01424
             19  C  5  X      0.96987     1.00597
             20  C  5  Y      1.01812     1.04218
             21  C  5  Z      1.01136     1.03703
             22  H  6  S      0.92477     0.95836
             23  O  7  S      1.99741     1.99591
             24  O  7  S      1.81358     1.67890
             25  O  7  X      1.65462     1.67004
             26  O  7  Y      1.25042     1.29014
             27  O  7  Z      1.84134     1.85156
             28  H  8  S      0.69167     0.79243
             29  H  9  S      0.92998     0.96864
             30  H 10  S      0.93175     0.97030
             31  H 11  S      0.92155     0.95591
             32  H 12  S      0.92284     0.95752
             33  H 13  S      0.94037     0.97093
             34  H 14  S      0.94030     0.97087
             35  H 15  S      0.93144     0.96358

          ----- MULLIKEN ATOMIC OVERLAP POPULATIONS -----
          (OFF-DIAGONAL ELEMENTS NEED TO BE MULTIPLIED BY 2)

             1           2           3           4           5

    1    7.8773499
    2    0.2631416   0.5236679
    3    0.2630718  -0.0294536   4.7048569
    4   -0.0175233   0.0020976   0.3616711   4.7479950
    5    0.0002469  -0.0000286  -0.0232483   0.3592172   4.7309828
    6    0.0055064  -0.0001364  -0.0013940  -0.0112753   0.0002194
    7   -0.0909535   0.0039660   0.0025572  -0.0029523   0.0000220
    8    0.0342111  -0.0057761  -0.0122501  -0.0014848   0.0000233
    9   -0.0173315  -0.0021188   0.3803735  -0.0224011  -0.0021396
   10   -0.0176126  -0.0020706   0.3799858  -0.0227547  -0.0021053
   11   -0.0005607   0.0000018  -0.0227393   0.3878330  -0.0211727
   12   -0.0005004   0.0000003  -0.0227395   0.3874757  -0.0211983
   13    0.0000042  -0.0000011  -0.0026327  -0.0218857   0.3843721
   14    0.0000041  -0.0000010  -0.0026330  -0.0218730   0.3844083
   15   -0.0000044   0.0000007   0.0013370  -0.0204812   0.3856108

             6           7           8           9          10

    6    0.7346173
    7    0.2526133   8.1282575
    8   -0.0479377   0.2676208   0.4560163
    9    0.0000627  -0.0001007   0.0007242   0.6188458
   10    0.0000553  -0.0000751   0.0004597  -0.0254713   0.6217805
   11   -0.0040424  -0.0020418   0.0000546   0.0018366  -0.0026095
   12   -0.0035259  -0.0015439   0.0000076  -0.0026193   0.0018487
   13   -0.0000035  -0.0000005   0.0000003   0.0003215  -0.0000129
   14   -0.0000025  -0.0000005   0.0000008  -0.0000147   0.0003257
   15    0.0000111   0.0000002  -0.0000010   0.0000111   0.0000098

            11          12          13          14          15

   11    0.6097483
   12   -0.0220135   0.6103869
   13    0.0018917  -0.0023826   0.6223625
   14   -0.0023904   0.0018924  -0.0212130   0.6222390
   15   -0.0022503  -0.0022493  -0.0204495  -0.0204418   0.6103340

          TOTAL MULLIKEN AND LOWDIN ATOMIC POPULATIONS
       ATOM         MULL.POP.    CHARGE          LOW.POP.     CHARGE
    1 O             8.299050   -0.299050         8.134549   -0.134549
    2 H             0.753290    0.246710         0.818887    0.181113
    3 C             5.976763    0.023237         5.929429    0.070571
    4 C             6.103658   -0.103658         6.037258   -0.037258
    5 C             6.175210   -0.175210         6.084777   -0.084777
    6 H             0.924768    0.075232         0.958356    0.041644
    7 O             8.557369   -0.557369         8.486542   -0.486542
    8 H             0.691669    0.308331         0.792433    0.207567
    9 H             0.929978    0.070022         0.968644    0.031356
   10 H             0.931754    0.068246         0.970304    0.029696
   11 H             0.921545    0.078455         0.955912    0.044088
   12 H             0.922839    0.077161         0.957521    0.042479
   13 H             0.940371    0.059629         0.970934    0.029066
   14 H             0.940300    0.059700         0.970869    0.029131
   15 H             0.931437    0.068563         0.963583    0.036417

          -------------------------------
          BOND ORDER AND VALENCE ANALYSIS     BOND ORDER THRESHOLD=0.050
          -------------------------------

                   BOND                       BOND                       BOND
  ATOM PAIR DIST  ORDER      ATOM PAIR DIST  ORDER      ATOM PAIR DIST  ORDER
    1   2  0.967  0.897        1   3  1.429  0.924        1   7  1.998  0.078
    1   8  1.040  0.242        3   4  1.530  0.989        3   9  1.090  0.967
    3  10  1.090  0.966        4   5  1.530  0.998        4  11  1.090  0.969
    4  12  1.090  0.970        5  13  1.090  0.983        5  14  1.090  0.983
    5  15  1.090  0.982        6   7  0.967  0.978        7   8  0.967  0.651

                       TOTAL       BONDED        FREE
      ATOM            VALENCE     VALENCE     VALENCE
    1 O                 2.186       2.186       0.000
    2 H                 0.939       0.939       0.000
    3 C                 3.888       3.888      -0.000
    4 C                 3.958       3.958      -0.000
    5 C                 3.965       3.965       0.000
    6 H                 0.994       0.994       0.000
    7 O                 1.748       1.748       0.000
    8 H                 0.905       0.905       0.000
    9 H                 0.995       0.995      -0.000
   10 H                 0.995       0.995       0.000
   11 H                 0.994       0.994       0.000
   12 H                 0.994       0.994       0.000
   13 H                 0.996       0.996       0.000
   14 H                 0.996       0.996       0.000
   15 H                 0.995       0.995      -0.000

          ---------------------
          ELECTROSTATIC MOMENTS
          ---------------------

 POINT   1           X           Y           Z (BOHR)    CHARGE
                -6.203637   -0.174931    0.659096       -0.00 (A.U.)
         DX          DY          DZ         /D/  (DEBYE)
     3.345386    1.879168   -3.396223    5.124179
 ...... END OF PROPERTY EVALUATION ......
 STEP CPU TIME =     0.00 TOTAL CPU TIME =          0.1 (      0.0 MIN)
 TOTAL WALL CLOCK TIME=          0.1 SECONDS, CPU UTILIZATION IS   100.00%

 BEGINNING ONE ELECTRON GRADIENT...
 ..... END OF 1-ELECTRON GRADIENT ......
 STEP CPU TIME =     0.01 TOTAL CPU TIME =          0.1 (      0.0 MIN)
 TOTAL WALL CLOCK TIME=          0.1 SECONDS, CPU UTILIZATION IS   100.00%

          ----------------------
          GRADIENT OF THE ENERGY
          ----------------------
 THE COARSE/FINE SCHWARZ SCREENINGS SKIPPED         2519/        1939 BLOCKS.
 THE NUMBER OF GRADIENT INTEGRAL BLOCKS COMPUTED WAS     17657
 ...... END OF 2-ELECTRON GRADIENT ......
 STEP CPU TIME =     0.07 TOTAL CPU TIME =          0.2 (      0.0 MIN)
 TOTAL WALL CLOCK TIME=          0.2 SECONDS, CPU UTILIZATION IS   100.00%

          NSERCH=  0     ENERGY=    -265.5663653

                                 -----------------------
                                 GRADIENT (HARTREE/BOHR)
                                 -----------------------
        ATOM     ZNUC       DE/DX         DE/DY         DE/DZ
 --------------------------------------------------------------
    1  O            8.0    -0.1032159    -0.1186844     0.1740509
    2  H            1.0    -0.0034596    -0.0175065     0.0119579
    3  C            6.0     0.0036872    -0.0137948     0.0069782
    4  C            6.0    -0.0082423     0.0083547     0.0000847
    5  C            6.0    -0.0043969     0.0019657     0.0017710
    6  H            1.0     0.0045991     0.0143997    -0.0094114
    7  O            8.0     0.0786045     0.0775581    -0.1128015
    8  H            1.0     0.0513768     0.0505659    -0.0859223
    9  H            1.0    -0.0021601    -0.0019593     0.0053448
   10  H            1.0    -0.0047831    -0.0039944     0.0021881
   11  H            1.0    -0.0012162     0.0019877     0.0049045
   12  H            1.0    -0.0036180    -0.0019154    -0.0018524
   13  H            1.0    -0.0046424     0.0014232    -0.0037874
   14  H            1.0    -0.0003786     0.0054296     0.0028654
   15  H            1.0    -0.0021543    -0.0038298     0.0036295

          MAXIMUM GRADIENT = 0.1740509    RMS GRADIENT = 0.0456957

 NSERCH:   0  E=     -265.5663652958  GRAD. MAX=  0.1740509  R.M.S.=  0.0456957

          FORCE CONSTANT MATRIX NOT UPDATED --- TAKING FIRST STEP
          MIN SEARCH, CORRECT HESSIAN, TRYING PURE NR STEP
               NR STEP HAS LENGTH         =   2.253861
          TRIM/QA LAMBDA FOR NON-TS MODES =  -0.41896452
          TRIM/QA STEP HAS LENGTH         =   0.300000
          RADIUS OF STEP TAKEN=   0.30000  CURRENT TRUST RADIUS=   0.30000

 BEGINNING GEOMETRY SEARCH POINT NSERCH=   1 ...

 COORDINATES OF ALL ATOMS ARE (ANGS)
   ATOM   CHARGE       X              Y              Z
 ------------------------------------------------------------
 O           8.0  -4.1343018871   1.0958520490   0.1043053407
 H           1.0  -4.4305885873   1.9397671898  -0.1956376352
 C           6.0  -2.9145826123   0.5647994808  -0.3181622207
 C           6.0  -2.6215652609  -0.8008217225   0.3185800022
 C           6.0  -1.2815119207  -1.3212358152  -0.2051226964
 H           1.0  -4.4116450218  -0.9061006016   1.5788340316
 O           8.0  -5.0420270985  -0.1683280938   1.6555176675
 H           1.0  -4.6007047269   0.4758261078   1.0092173872
 H           1.0  -2.9683088489   0.4585160538  -1.4021070992
 H           1.0  -2.1262689747   1.2690429856  -0.0506027589
 H           1.0  -2.5767264225  -0.6966712931   1.3997163301
 H           1.0  -3.4132402178  -1.5004048844   0.0602713646
 H           1.0  -1.3281850057  -1.4258353809  -1.2861411569
 H           1.0  -0.4916992425  -0.6210258231   0.0555956029
 H           1.0  -1.0675141721  -2.2884502522   0.2418258406

          INTERNUCLEAR DISTANCES (ANGS.)
          ------------------------------

                1 O          2 H          3 C          4 C          5 C     

   1 O       0.0000000    0.9433686 *  1.3957832 *  2.4354994 *  3.7518622  
   2 H       0.9433686 *  0.0000000    2.0503226 *  3.3238250    4.5333116  
   3 C       1.3957832 *  2.0503226 *  0.0000000    1.5349987 *  2.4973640 *
   4 C       2.4354994 *  3.3238250    1.5349987 *  0.0000000    1.5299798 *
   5 C       3.7518622    4.5333116    2.4973640 *  1.5299798 *  0.0000000  
   6 H       2.5017931 *  3.3538146    2.8290171 *  2.1917366 *  3.6266475  
   7 O       2.1973566 *  2.8713583 *  2.9931436 *  2.8365624 *  4.3511669  
   8 H       1.1919856 *  1.9036120 *  2.1477571 *  2.4543436 *  3.9649835  
   9 H       2.0087348 *  2.4058129 *  1.0904674 *  2.1603071 *  2.7286576 *
  10 H       2.0214321 *  2.4043284 *  1.0904061 *  2.1600820 *  2.7289256 *
  11 H       2.7050455 *  3.5962157    2.1579069 *  1.0870665 *  2.1548016 *
  12 H       2.6948876 *  3.5965638    2.1579945 *  1.0876071 *  2.1556440 *
  13 H       4.0207637    4.7054635    2.7232825 *  2.1537420 *  1.0870696 *
  14 H       4.0272318    4.7048516    2.7232775 *  2.1535591 *  1.0872314 *
  15 H       4.5692013    5.4202829    3.4447471    2.1526738 *  1.0867667 *

                6 H          7 O          8 H          9 H         10 H     

   1 O       2.5017931 *  2.1973566 *  1.1919856 *  2.0087348 *  2.0214321 *
   2 H       3.3538146    2.8713583 *  1.9036120 *  2.4058129 *  2.4043284 *
   3 C       2.8290171 *  2.9931436 *  2.1477571 *  1.0904674 *  1.0904061 *
   4 C       2.1917366 *  2.8365624 *  2.4543436 *  2.1603071 *  2.1600820 *
   5 C       3.6266475    4.3511669    3.9649835    2.7286576 *  2.7289256 *
   6 H       0.0000000    0.9734322 *  1.5066281 *  3.5820955    3.5509516  
   7 O       0.9734322 *  0.0000000    1.0136095 *  3.7473071    3.6713115  
   8 H       1.5066281 *  1.0136095 *  0.0000000    2.9119584 *  2.8062865 *
   9 H       3.5820955    3.7473071    2.9119584 *  0.0000000    1.7867706 *
  10 H       3.5509516    3.6713115    2.8062865 *  1.7867706 *  0.0000000  
  11 H       1.8554973 *  2.5342234 *  2.3714400 *  3.0558156    2.4840229 *
  12 H       1.9120780 *  2.6404897 *  2.4932026 *  2.4847306 *  3.0558844  
  13 H       4.2409825    4.9017654    4.4265531    2.5008468 *  3.0701568  
  14 H       4.2151510    4.8446021    4.3584865    3.0698376    2.5010910 *
  15 H       3.8576797    4.7212494    4.5512140    3.7230847    3.7232022  

               11 H         12 H         13 H         14 H         15 H     

   1 O       2.7050455 *  2.6948876 *  4.0207637    4.0272318    4.5692013  
   2 H       3.5962157    3.5965638    4.7054635    4.7048516    5.4202829  
   3 C       2.1579069 *  2.1579945 *  2.7232825 *  2.7232775 *  3.4447471  
   4 C       1.0870665 *  1.0876071 *  2.1537420 *  2.1535591 *  2.1526738 *
   5 C       2.1548016 *  2.1556440 *  1.0870696 *  1.0872314 *  1.0867667 *
   6 H       1.8554973 *  1.9120780 *  4.2409825    4.2151510    3.8576797  
   7 O       2.5342234 *  2.6404897 *  4.9017654    4.8446021    4.7212494  
   8 H       2.3714400 *  2.4932026 *  4.4265531    4.3584865    4.5512140  
   9 H       3.0558156    2.4847306 *  2.5008468 *  3.0698376    3.7230847  
  10 H       2.4840229 *  3.0558844    3.0701568    2.5010910 *  3.7232022  
  11 H       0.0000000    1.7719638 *  3.0503059    2.4818785 *  2.4803613 *
  12 H       1.7719638 *  0.0000000    2.4831115 *  3.0510213    2.4812110 *
  13 H       3.0503059    2.4831115 *  0.0000000    1.7741715 *  1.7739044 *
  14 H       2.4818785 *  3.0510213    1.7741715 *  0.0000000    1.7738514 *
  15 H       2.4803613 *  2.4812110 *  1.7739044 *  1.7738514 *  0.0000000  

  * ... LESS THAN  3.000

 ...... END OF ONE-ELECTRON INTEGRALS ......
 STEP CPU TIME =     0.00 TOTAL CPU TIME =          0.2 (      0.0 MIN)
 TOTAL WALL CLOCK TIME=          0.2 SECONDS, CPU UTILIZATION IS   100.00%
 TOTAL NUMBER OF NONZERO TWO-ELECTRON INTEGRALS =              181510
         13 INTEGRAL RECORDS WERE STORED ON DISK FILE  8.
  ...... END OF TWO-ELECTRON INTEGRALS .....
 STEP CPU TIME =     0.03 TOTAL CPU TIME =          0.2 (      0.0 MIN)
 TOTAL WALL CLOCK TIME=          0.2 SECONDS, CPU UTILIZATION IS    95.00%

          --------------------------
                 RHF SCF CALCULATION
          --------------------------
     DENSITY MATRIX CONV=  2.00E-04

 ITER EX DEM     TOTAL ENERGY        E CHANGE  DENSITY CHANGE     ORB. GRAD
          ---------------START SECOND ORDER SCF---------------
   1  0  0     -265.6141807259  -265.6141807259   0.032949645   0.024574632
   2  1  0     -265.6186096334    -0.0044289075   0.021622750   0.007269770
   3  2  0     -265.6193353331    -0.0007256997   0.001848701   0.001332130
   4  3  0     -265.6193460399    -0.0000107068   0.000887983   0.000335913
   5  4  0     -265.6193472087    -0.0000011688   0.000079649   0.000066851
   6  5  0     -265.6193472355    -0.0000000268   0.000032388   0.000014189
   7  6  0     -265.6193472383    -0.0000000028   0.000006976   0.000002773

          -----------------
          DENSITY CONVERGED
          -----------------
     TIME TO FORM FOCK OPERATORS=       0.0 SECONDS (       0.0 SEC/ITER)
     TIME TO SOLVE SCF EQUATIONS=       0.0 SECONDS (       0.0 SEC/ITER)

 FINAL RHF ENERGY IS     -265.6193472383 AFTER   7 ITERATIONS
 ...... END OF RHF CALCULATION ......
 STEP CPU TIME =     0.01 TOTAL CPU TIME =          0.2 (      0.0 MIN)
 TOTAL WALL CLOCK TIME=          0.2 SECONDS, CPU UTILIZATION IS    95.24%
 ..... END OF 1-ELECTRON GRADIENT ......
 STEP CPU TIME =     0.02 TOTAL CPU TIME =          0.2 (      0.0 MIN)
 TOTAL WALL CLOCK TIME=          0.2 SECONDS, CPU UTILIZATION IS   100.00%
 ...... END OF 2-ELECTRON GRADIENT ......
 STEP CPU TIME =     0.06 TOTAL CPU TIME =          0.3 (      0.0 MIN)
 TOTAL WALL CLOCK TIME=          0.3 SECONDS, CPU UTILIZATION IS    96.55%

          NSERCH=  1     ENERGY=    -265.6193472

                                 -----------------------
                                 GRADIENT (HARTREE/BOHR)
                                 -----------------------
        ATOM     ZNUC       DE/DX         DE/DY         DE/DZ
 --------------------------------------------------------------
    1  O            8.0    -0.0111976     0.0018708     0.0200643
    2  H            1.0    -0.0066875    -0.0460601     0.0296962
    3  C            6.0    -0.0171946    -0.0226887     0.0273189
    4  C            6.0    -0.0030649     0.0023393     0.0008860
    5  C            6.0    -0.0025463     0.0010974     0.0009824
    6  H            1.0     0.0081895     0.0163904    -0.0123263
    7  O            8.0     0.0172766     0.0064633    -0.0271150
    8  H            1.0     0.0490166     0.0345511    -0.0556504
    9  H            1.0    -0.0109294     0.0014898     0.0070595
   10  H            1.0    -0.0106068    -0.0004230     0.0046401
   11  H            1.0    -0.0020076     0.0013632     0.0019349
   12  H            1.0    -0.0021372    -0.0001444    -0.0004643
   13  H            1.0    -0.0039829     0.0014542    -0.0013087
   14  H            1.0    -0.0017643     0.0035220     0.0020678
   15  H            1.0    -0.0023636    -0.0012253     0.0022146

          MAXIMUM GRADIENT = 0.0556504    RMS GRADIENT = 0.0175048

 NSERCH:   1  E=     -265.6193472383  GRAD. MAX=  0.0556504  R.M.S.=  0.0175048

          HESSIAN UPDATED USING THE BFGS FORMULA
             ACTUAL ENERGY CHANGE WAS  -0.0529819425
          PREDICTED ENERGY CHANGE WAS  -0.0629972566 RATIO=  0.841
          MIN SEARCH, CORRECT HESSIAN, TRYING PURE NR STEP
               NR STEP HAS LENGTH         =   2.158295
          TRIM/QA LAMBDA FOR NON-TS MODES =  -0.10005674
          TRIM/QA STEP HAS LENGTH         =   0.424264
          RADIUS OF STEP TAKEN=   0.42426  CURRENT TRUST RADIUS=   0.42426

 BEGINNING GEOMETRY SEARCH POINT NSERCH=   2 ...

 COORDINATES OF ALL ATOMS ARE (ANGS)
   ATOM   CHARGE       X              Y              Z
 ------------------------------------------------------------
 O           8.0  -4.1507159897   1.0832978924   0.0924399216
 H           1.0  -4.3604915128   1.9927275034  -0.2541446441
 C           6.0  -2.9068610902   0.6049708593  -0.3522377960
 C           6.0  -2.6246312895  -0.7756803070   0.3051396330
 C           6.0  -1.2843058216  -1.3176514634  -0.2057470291
 H           1.0  -4.4400328173  -0.9533256524   1.6154694903
 O           8.0  -5.0714662421  -0.2054149078   1.7462637165
 H           1.0  -4.7018364386   0.4399670820   1.0694596497
 H           1.0  -2.9255633703   0.4578437535  -1.4303873087
 H           1.0  -2.0930794933   1.2722254068  -0.0703404334
 H           1.0  -2.5797248068  -0.6909516831   1.3871746540
 H           1.0  -3.4095398873  -1.4876478074   0.0627940351
 H           1.0  -1.3143463704  -1.4313058287  -1.2846313442
 H           1.0  -0.4834988628  -0.6306131056   0.0485797734
 H           1.0  -1.0627760072  -2.2835117420   0.2362576818

          INTERNUCLEAR DISTANCES (ANGS.)
          ------------------------------

                1 O          2 H          3 C          4 C          5 C     

   1 O       0.0000000    0.9955847 *  1.4048879 *  2.4145342 *  3.7509706  
   2 H       0.9955847 *  0.0000000    2.0120965 *  3.3151307    4.5192776  
   3 C       1.4048879 *  2.0120965 *  0.0000000    1.5549908 *  2.5200440 *
   4 C       2.4145342 *  3.3151307    1.5549908 *  0.0000000    1.5333657 *
   5 C       3.7509706    4.5192776    2.5200440 *  1.5333657 *  0.0000000  
   6 H       2.5595232 *  3.4901308    2.9412201 *  2.2459307 *  3.6617176  
   7 O       2.2899115 *  3.0559694    3.1218503    2.8963844 *  4.4034078  
   8 H       1.2931264 *  2.0686976 *  2.2957322 *  2.5252257 *  4.0490605  
   9 H       2.0521195 *  2.4079937 *  1.0883026 *  2.1503943 *  2.7103235 *
  10 H       2.0726937 *  2.3862239 *  1.0894656 *  2.1488254 *  2.7165993 *
  11 H       2.7004283 *  3.6148573    2.1936246 *  1.0862759 *  2.1466864 *
  12 H       2.6758144 *  3.6218464    2.1918007 *  1.0870651 *  2.1488678 *
  13 H       4.0329331    4.6973298    2.7480691 *  2.1619582 *  1.0852701 *
  14 H       4.0481966    4.6909093    2.7495467 *  2.1613226 *  1.0853551 *
  15 H       4.5707181    5.4223283    3.4771121    2.1720249 *  1.0850482 *

                6 H          7 O          8 H          9 H         10 H     

   1 O       2.5595232 *  2.2899115 *  1.2931264 *  2.0521195 *  2.0726937 *
   2 H       3.4901308    3.0559694    2.0686976 *  2.4079937 *  2.3862239 *
   3 C       2.9412201 *  3.1218503    2.2957322 *  1.0883026 *  1.0894656 *
   4 C       2.2459307 *  2.8963844 *  2.5252257 *  2.1503943 *  2.1488254 *
   5 C       3.6617176    4.4034078    4.0490605    2.7103235 *  2.7165993 *
   6 H       0.0000000    0.9875150 *  1.5191881 *  3.6826974    3.6473583  
   7 O       0.9875150 *  0.0000000    1.0055883 *  3.8904913    3.7887015  
   8 H       1.5191881 *  1.0055883 *  0.0000000    3.0667084    2.9660430 *
   9 H       3.6826974    3.8904913    3.0667084    0.0000000    1.7905235 *
  10 H       3.6473583    3.7887015    2.9660430 *  1.7905235 *  0.0000000  
  11 H       1.8925392 *  2.5638772 *  2.4255469 *  3.0623505    2.4930379 *
  12 H       1.9386121 *  2.6907602 *  2.5296453 *  2.4997522 *  3.0606687  
  13 H       4.2905671    4.9804702    4.5297346    2.4871975 *  3.0643121  
  14 H       4.2677216    4.9104347    4.4702024    3.0554478    2.4951325 *
  15 H       3.8829736    4.7611135    4.6210738    3.7098130    3.7146728  

               11 H         12 H         13 H         14 H         15 H     

   1 O       2.7004283 *  2.6758144 *  4.0329331    4.0481966    4.5707181  
   2 H       3.6148573    3.6218464    4.6973298    4.6909093    5.4223283  
   3 C       2.1936246 *  2.1918007 *  2.7480691 *  2.7495467 *  3.4771121  
   4 C       1.0862759 *  1.0870651 *  2.1619582 *  2.1613226 *  2.1720249 *
   5 C       2.1466864 *  2.1488678 *  1.0852701 *  1.0853551 *  1.0850482 *
   6 H       1.8925392 *  1.9386121 *  4.2905671    4.2677216    3.8829736  
   7 O       2.5638772 *  2.6907602 *  4.9804702    4.9104347    4.7611135  
   8 H       2.4255469 *  2.5296453 *  4.5297346    4.4702024    4.6210738  
   9 H       3.0623505    2.4997522 *  2.4871975 *  3.0554478    3.7098130  
  10 H       2.4930379 *  3.0606687    3.0643121    2.4951325 *  3.7146728  
  11 H       0.0000000    1.7542240 *  3.0475981    2.4878988 *  2.4823358 *
  12 H       1.7542240 *  0.0000000    2.4916993 *  3.0490042    2.4841074 *
  13 H       3.0475981    2.4916993 *  0.0000000    1.7631983 *  1.7614329 *
  14 H       2.4878988 *  3.0490042    1.7631983 *  0.0000000    1.7614934 *
  15 H       2.4823358 *  2.4841074 *  1.7614329 *  1.7614934 *  0.0000000  

  * ... LESS THAN  3.000

 ...... END OF ONE-ELECTRON INTEGRALS ......
 STEP CPU TIME =     0.00 TOTAL CPU TIME =          0.3 (      0.0 MIN)
 TOTAL WALL CLOCK TIME=          0.3 SECONDS, CPU UTILIZATION IS    96.55%
 TOTAL NUMBER OF NONZERO TWO-ELECTRON INTEGRALS =              180489
         13 INTEGRAL RECORDS WERE STORED ON DISK FILE  8.
  ...... END OF TWO-ELECTRON INTEGRALS .....
 STEP CPU TIME =     0.04 TOTAL CPU TIME =          0.3 (      0.0 MIN)
 TOTAL WALL CLOCK TIME=          0.3 SECONDS, CPU UTILIZATION IS    96.97%

          --------------------------
                 RHF SCF CALCULATION
          --------------------------
     DENSITY MATRIX CONV=  5.00E-05

 ITER EX DEM     TOTAL ENERGY        E CHANGE  DENSITY CHANGE     ORB. GRAD
          ---------------START SECOND ORDER SCF---------------
   1  0  0     -265.6439274922  -265.6439274922   0.039958299   0.013973436
   2  1  0     -265.6480341763    -0.0041066842   0.032104631   0.005821249
   3  2  0     -265.6487478409    -0.0007136646   0.001913557   0.000903110
   4  3  0     -265.6487614349    -0.0000135940   0.000817454   0.000264611
   5  4  0     -265.6487632487    -0.0000018138   0.000149973   0.000053141
   6  5  0     -265.6487633032    -0.0000000545   0.000085744   0.000022865
   7  6  0     -265.6487633124    -0.0000000092   0.000010376   0.000004588
   8  7  0     -265.6487633127    -0.0000000003   0.000004349   0.000001378

          -----------------
          DENSITY CONVERGED
          -----------------
     TIME TO FORM FOCK OPERATORS=       0.0 SECONDS (       0.0 SEC/ITER)
     TIME TO SOLVE SCF EQUATIONS=       0.0 SECONDS (       0.0 SEC/ITER)

 FINAL RHF ENERGY IS     -265.6487633127 AFTER   8 ITERATIONS
 ...... END OF RHF CALCULATION ......
 STEP CPU TIME =     0.02 TOTAL CPU TIME =          0.3 (      0.0 MIN)
 TOTAL WALL CLOCK TIME=          0.3 SECONDS, CPU UTILIZATION IS    97.14%
 ..... END OF 1-ELECTRON GRADIENT ......
 STEP CPU TIME =     0.01 TOTAL CPU TIME =          0.4 (      0.0 MIN)
 TOTAL WALL CLOCK TIME=          0.4 SECONDS, CPU UTILIZATION IS    97.22%
 ...... END OF 2-ELECTRON GRADIENT ......
 STEP CPU TIME =     0.06 TOTAL CPU TIME =          0.4 (      0.0 MIN)
 TOTAL WALL CLOCK TIME=          0.4 SECONDS, CPU UTILIZATION IS    97.62%

          NSERCH=  2     ENERGY=    -265.6487633

                                 -----------------------
                                 GRADIENT (HARTREE/BOHR)
                                 -----------------------
        ATOM     ZNUC       DE/DX         DE/DY         DE/DZ
 --------------------------------------------------------------
    1  O            8.0     0.0034039    -0.0528913     0.0386929
[...]
                     A          A          A          A          A   
    1  O  1  S    0.021106  -0.009776  -0.042596   0.000945   0.017924
    2  O  1  S   -0.144351   0.087067   0.273528  -0.005202  -0.106500
    3  O  1  X    0.423931  -0.237343   0.181395   0.025968  -0.094414
    4  O  1  Y   -0.448902   0.388734   0.228198   0.042126  -0.015146
    5  O  1  Z   -0.021674  -0.145606  -0.134948   0.100724   0.017011
    6  H  2  S    0.562077  -0.484803  -0.274142  -0.003905   0.062190
    7  C  3  S    0.055821  -0.085738   0.112654   0.000657  -0.181573
    8  C  3  S   -0.299864   0.503990  -0.683895  -0.004952   1.130928
    9  C  3  X    0.302731  -0.015538   0.015437  -0.195367   0.384887
   10  C  3  Y    0.005784  -0.036463  -0.359800  -0.253095  -0.001899
   11  C  3  Z    0.010970   0.079052   0.124874  -0.711275  -0.095430
   12  C  4  S    0.021732  -0.009265   0.103158   0.002309   0.163220
   13  C  4  S   -0.150119   0.067837  -0.626708  -0.014536  -0.993878
   14  C  4  X    0.380247   0.039380  -0.527435   0.038104  -0.120638
   15  C  4  Y    0.174901  -0.231676   0.167782   0.046005  -0.181949
   16  C  4  Z   -0.050744   0.151170   0.090105   0.123691   0.102144
   17  C  5  S    0.038934  -0.007823  -0.018099   0.001806  -0.016865
   18  C  5  S   -0.230050   0.052352   0.077097  -0.011924   0.082702
   19  C  5  X    0.247098   0.069962  -0.744334   0.180192  -0.454767
   20  C  5  Y    0.244952  -0.298879   0.265483   0.236920   0.326572
   21  C  5  Z   -0.041278   0.190225   0.119531   0.701112  -0.000447
   22  H  6  S    0.525658   0.735037   0.228049  -0.071404  -0.137887
   23  O  7  S    0.071853   0.086589   0.020263  -0.003104  -0.003648
   24  O  7  S   -0.466960  -0.566290  -0.132572   0.020180   0.024611
   25  O  7  X    0.199482   0.322381   0.117304  -0.045925  -0.096833
   26  O  7  Y    0.256338   0.374923   0.127766  -0.044963  -0.084271
   27  O  7  Z    0.299925   0.298153   0.032633   0.017326   0.049893
   28  H  8  S    0.343137   0.332168   0.021516   0.034119   0.088639
   29  H  9  S    0.090650  -0.137107   0.478583  -0.590663  -0.634638
   30  H 10  S   -0.048786  -0.232472   0.470605   0.606136  -0.643639
   31  H 11  S    0.180370  -0.224353   0.117411  -0.099102   0.324481
   32  H 12  S    0.385065  -0.067730   0.127315   0.114494   0.334315
   33  H 13  S   -0.019283   0.203621   0.140964   0.628143   0.012790
   34  H 14  S   -0.190454   0.042742   0.128924  -0.608399   0.028416
   35  H 15  S    0.307851  -0.382769   0.322594   0.002754   0.305959

                     31         32
                    0.7462     0.7564
                     A          A   
    1  O  1  S   -0.020839   0.005869
    2  O  1  S    0.123976  -0.031526
    3  O  1  X    0.289353  -0.202162
    4  O  1  Y   -0.200219   0.242504
    5  O  1  Z    0.032261  -0.039262
    6  H  2  S    0.203773  -0.210991
    7  C  3  S    0.014574  -0.026643
    8  C  3  S   -0.042584   0.122076
    9  C  3  X    0.459026  -0.272383
   10  C  3  Y    0.155952  -0.511566
   11  C  3  Z   -0.213059   0.252091
   12  C  4  S   -0.042225   0.070781
   13  C  4  S    0.297397  -0.435591
   14  C  4  X   -0.695725   0.288884
   15  C  4  Y   -0.114544  -0.344815
   16  C  4  Z    0.230476   0.040544
   17  C  5  S   -0.168096  -0.109200
   18  C  5  S    1.071251   0.707121
   19  C  5  X    0.005356   0.462843
   20  C  5  Y    0.110785   0.491144
   21  C  5  Z   -0.028357  -0.292527
   22  H  6  S    0.197938  -0.033315
   23  O  7  S   -0.001094   0.000409
   24  O  7  S    0.006447  -0.002422
   25  O  7  X    0.157400  -0.027975
   26  O  7  Y    0.130423  -0.021406
   27  O  7  Z   -0.123535   0.021770
   28  H  8  S   -0.207469   0.037020
   29  H  9  S   -0.191905   0.260727
   30  H 10  S   -0.137650   0.252787
   31  H 11  S   -0.398277   0.167753
   32  H 12  S   -0.403242   0.169728
   33  H 13  S   -0.468908  -0.678585
   34  H 14  S   -0.486933  -0.682479
   35  H 15  S   -0.341734   0.095983

     ----------------------------------------------------------------
     PROPERTY VALUES FOR THE RHF   SELF-CONSISTENT FIELD WAVEFUNCTION
     ----------------------------------------------------------------

          -----------------
          ENERGY COMPONENTS
          -----------------

         WAVEFUNCTION NORMALIZATION =       1.0000000000

                ONE ELECTRON ENERGY =    -737.8628113579
                TWO ELECTRON ENERGY =     284.1616121188
           NUCLEAR REPULSION ENERGY =     188.0136123802
                                      ------------------
                       TOTAL ENERGY =    -265.6875868590

 ELECTRON-ELECTRON POTENTIAL ENERGY =     284.1616121188
  NUCLEUS-ELECTRON POTENTIAL ENERGY =   -1001.5180089605
   NUCLEUS-NUCLEUS POTENTIAL ENERGY =     188.0136123802
                                      ------------------
             TOTAL POTENTIAL ENERGY =    -529.3427844615
               TOTAL KINETIC ENERGY =     263.6551976025
                 VIRIAL RATIO (V/T) =       2.0077085120

          ---------------------------------------
          MULLIKEN AND LOWDIN POPULATION ANALYSES
          ---------------------------------------

     ATOMIC MULLIKEN POPULATION IN EACH MOLECULAR ORBITAL

                      1          2          3          4          5

                  2.000000   2.000000   2.000000   2.000000   2.000000

    1             2.001162   0.000002  -0.000366   0.000000  -0.000000
    2            -0.000628   0.000000  -0.000022  -0.000000  -0.000000
    3            -0.000513  -0.000000   2.003001  -0.000736  -0.000000
    4             0.000002  -0.000000  -0.000716   2.002933  -0.000222
    5            -0.000000  -0.000000   0.000000  -0.000232   2.003202
    6             0.000000  -0.000625   0.000000   0.000000  -0.000000
    7             0.000003   2.001272  -0.000000  -0.000000  -0.000000
    8            -0.000033  -0.000649  -0.000001   0.000000  -0.000000
    9             0.000003  -0.000000  -0.000950   0.000000  -0.000000
   10             0.000003   0.000000  -0.000948   0.000000   0.000000
   11            -0.000000   0.000000   0.000000  -0.000985  -0.000001
   12            -0.000000   0.000000   0.000000  -0.000986  -0.000001
   13            -0.000000  -0.000000   0.000000   0.000001  -0.000993
   14            -0.000000  -0.000000   0.000000   0.000001  -0.000992
   15            -0.000000  -0.000000  -0.000000   0.000002  -0.000993

                      6          7          8          9         10

                  2.000000   2.000000   2.000000   2.000000   2.000000

    1             1.514329   0.012662   0.068438   0.155074   0.074482
    2             0.161050   0.001623   0.017424   0.039721   0.001336
    3             0.266095   0.003561   0.290699   0.521411   0.387712
    4             0.015521   0.000230   0.716499   0.160311   0.526446
    5             0.000531   0.000017   0.502813   0.565049   0.230887
    6             0.000993   0.189235   0.000033   0.000114   0.000339
    7             0.010202   1.612094   0.000171   0.000521   0.001617
    8             0.010736   0.180215   0.000149   0.000875   0.002822
    9             0.009337   0.000197   0.031634   0.104251   0.128353
   10             0.009297   0.000151   0.031244   0.103443   0.124580
   11             0.000912  -0.000004   0.082803   0.003235   0.173798
   12             0.000935   0.000016   0.083658   0.003269   0.175615
   13             0.000025   0.000001   0.060280   0.106335   0.069814
   14             0.000025   0.000001   0.059928   0.105677   0.069251
   15             0.000012   0.000001   0.054226   0.130713   0.032950

                     11         12         13         14         15

                  2.000000   2.000000   2.000000   2.000000   2.000000

    1             0.226341   0.807271   0.258520   0.109688   0.107677
    2             0.025582   0.388047   0.000623   0.000227   0.000584
    3             0.515001   0.387743   0.162546   0.170248   0.304914
    4             0.345343   0.115940   0.181687   0.216992   0.067049
    5             0.132268   0.094668   0.281644   0.514038   0.413097
    6             0.012031   0.001509   0.167659   0.100460   0.113121
    7             0.034874   0.004880   0.418832   0.231027   0.247658
    8             0.034585   0.005217   0.244084   0.102342   0.080876
    9             0.207236   0.016244   0.000284   0.001233   0.177663
   10             0.140477   0.109277   0.000093   0.056589   0.080635
   11             0.099161   0.024139   0.065048  -0.000023   0.033826
   12             0.131711   0.001363   0.000066   0.074499   0.019064
   13             0.035112   0.028941   0.081068   0.000298   0.221713
   14             0.059939   0.001289   0.000460   0.184124   0.107615
   15             0.000339   0.013473   0.137386   0.238260   0.024508

                     16         17         18         19         20

                  2.000000   2.000000   2.000000   2.000000   2.000000

    1             0.386853   0.144257   0.329743   0.209831   0.696073
    2             0.032914   0.001479   0.011319   0.069389   0.056064
    3             0.125992   0.051537   0.194873   0.334011   0.182644
    4             0.338004   0.476502   0.508454   0.318515   0.102065
    5             0.468482   0.351044   0.514925   0.096005   0.009149
    6             0.048214   0.025197   0.027708   0.111212   0.056575
    7             0.100262   0.065344   0.075496   0.533254   0.619477
    8             0.000283   0.000845   0.001570   0.041433   0.063183
    9             0.000696   0.007314   0.028622   0.096950   0.000097
   10             0.001705   0.033772   0.000874   0.010515   0.160537
   11             0.078594   0.177676   0.123872   0.056599   0.001883
   12             0.082531   0.305208   0.007600   0.011643   0.037206
   13             0.108913   0.133534   0.078140   0.016326   0.001606
   14             0.120057   0.214518   0.007810   0.005493   0.004596
   15             0.106500   0.011773   0.088993   0.088826   0.008843

                     21         22

                  2.000000   2.000000

    1             1.191953   0.000267
    2             0.004307   0.000043
    3             0.089536   0.000116
    4             0.008572   0.000953
    5             0.000648   0.000101
    6             0.005048   0.000000
    7             0.426297   1.998103
    8             0.034441   0.000006
    9             0.138670   0.000093
   10             0.083852   0.000014
   11             0.011907   0.000145
   12             0.004489   0.000036
   13             0.000277   0.000105
   14             0.000000   0.000005
   15             0.000003   0.000014

               ----- POPULATIONS IN EACH AO -----
                             MULLIKEN      LOWDIN
              1  O  1  S      1.99772     1.99586
              2  O  1  S      1.82868     1.70127
              3  O  1  X      1.27699     1.29858
              4  O  1  Y      1.33649     1.35090
              5  O  1  Z      1.85438     1.85664
              6  H  2  S      0.81108     0.86610
              7  C  3  S      1.99239     1.98480
              8  C  3  S      1.17949     1.04750
              9  C  3  X      0.81296     0.85709
             10  C  3  Y      0.99862     1.02727
             11  C  3  Z      1.00693     1.02979
             12  C  4  S      1.99204     1.98503
             13  C  4  S      1.17845     1.02641
             14  C  4  X      0.96509     0.99905
             15  C  4  Y      0.94855     0.98706
             16  C  4  Z      1.01695     1.03970
             17  C  5  S      1.99203     1.98537
             18  C  5  S      1.18349     1.01327
             19  C  5  X      0.96407     1.00065
             20  C  5  Y      1.02190     1.04597
             21  C  5  Z      1.01685     1.04215
             22  H  6  S      0.85882     0.90416
             23  O  7  S      1.99777     1.99619
             24  O  7  S      1.84230     1.70526
             25  O  7  X      1.55492     1.56878
             26  O  7  Y      1.58307     1.59551
             27  O  7  Z      1.40332     1.41847
             28  H  8  S      0.80298     0.85935
             29  H  9  S      0.94793     0.98276
             30  H 10  S      0.94611     0.98150
             31  H 11  S      0.93258     0.96678
             32  H 12  S      0.93792     0.97101
             33  H 13  S      0.94150     0.97194
             34  H 14  S      0.93980     0.97060
             35  H 15  S      0.93583     0.96723

          ----- MULLIKEN ATOMIC OVERLAP POPULATIONS -----
          (OFF-DIAGONAL ELEMENTS NEED TO BE MULTIPLIED BY 2)

             1           2           3           4           5

    1    7.8145522
    2    0.2557347   0.6007046
    3    0.2625098  -0.0391778   4.7268622
    4   -0.0172376   0.0024411   0.3573694   4.7351480
    5    0.0002119  -0.0000355  -0.0203105   0.3614991   4.7280753
    6    0.0003741  -0.0000098  -0.0000069   0.0000056  -0.0000000
    7   -0.0039658   0.0002468   0.0001110  -0.0000279   0.0000001
    8    0.0148934  -0.0024405  -0.0016361  -0.0002859   0.0000006
    9   -0.0158432  -0.0034033   0.3764226  -0.0222603  -0.0016717
   10   -0.0159060  -0.0030028   0.3762553  -0.0224256  -0.0015555
   11   -0.0005497   0.0000123  -0.0224487   0.3841339  -0.0209801
   12   -0.0005151   0.0000122  -0.0226675   0.3836827  -0.0211196
   13    0.0000024  -0.0000008  -0.0020395  -0.0206799   0.3844019
   14    0.0000022  -0.0000008  -0.0020311  -0.0206177   0.3845413
   15   -0.0000038   0.0000008   0.0011796  -0.0196648   0.3852784

             6           7           8           9          10

    6    0.6512163
    7    0.2519750   7.8781840
    8   -0.0447421   0.2548850   0.5823261
    9    0.0000004  -0.0000028   0.0000981   0.6422320
   10   -0.0000003   0.0000090  -0.0001076  -0.0274297   0.6405535
   11    0.0000105  -0.0000301  -0.0000120   0.0017929  -0.0024305
   12    0.0000005  -0.0000002  -0.0000003  -0.0023537   0.0018078
   13    0.0000000  -0.0000000  -0.0000000   0.0003503  -0.0000017
   14   -0.0000000   0.0000000   0.0000002  -0.0000036   0.0003452
   15    0.0000000  -0.0000000   0.0000000   0.0000013  -0.0000010

            11          12          13          14          15

   11    0.6187677
   12   -0.0232268   0.6247419
   13    0.0018126  -0.0021569   0.6235576
   14   -0.0021576   0.0018186  -0.0221357   0.6215676
   15   -0.0021098  -0.0021026  -0.0216138  -0.0215303   0.6163914

          TOTAL MULLIKEN AND LOWDIN ATOMIC POPULATIONS
       ATOM         MULL.POP.    CHARGE          LOW.POP.     CHARGE
    1 O             8.294259   -0.294259         8.203249   -0.203249
    2 H             0.811081    0.188919         0.866098    0.133902
    3 C             5.990392    0.009608         5.946456    0.053544
    4 C             6.101080   -0.101080         6.037251   -0.037251
    5 C             6.178336   -0.178336         6.087409   -0.087409
    6 H             0.858823    0.141177         0.904165    0.095835
    7 O             8.381384   -0.381384         8.284210   -0.284210
    8 H             0.802979    0.197021         0.859349    0.140651
    9 H             0.947929    0.052071         0.982756    0.017244
   10 H             0.946110    0.053890         0.981502    0.018498
   11 H             0.932585    0.067415         0.966776    0.033224
   12 H             0.937921    0.062079         0.971007    0.028993
   13 H             0.941497    0.058503         0.971939    0.028061
   14 H             0.939798    0.060202         0.970604    0.029396
   15 H             0.935825    0.064175         0.967229    0.032771

          -------------------------------
          BOND ORDER AND VALENCE ANALYSIS     BOND ORDER THRESHOLD=0.050
          -------------------------------

                   BOND                       BOND                       BOND
  ATOM PAIR DIST  ORDER      ATOM PAIR DIST  ORDER      ATOM PAIR DIST  ORDER
    1   2  0.989  0.943        1   3  1.438  0.970        1   8  1.762  0.051
    3   4  1.545  0.988        3   9  1.097  0.966        3  10  1.097  0.965
    4   5  1.540  1.000        4  11  1.088  0.974        4  12  1.088  0.975
    5  13  1.086  0.983        5  14  1.086  0.983        5  15  1.086  0.983
    6   7  0.988  0.972        7   8  0.989  0.901

                       TOTAL       BONDED        FREE
      ATOM            VALENCE     VALENCE     VALENCE
    1 O                 2.044       2.044       0.000
    2 H                 0.964       0.964       0.000
    3 C                 3.920       3.920      -0.000
    4 C                 3.963       3.963      -0.000
    5 C                 3.966       3.966      -0.000
    6 H                 0.980       0.980       0.000
    7 O                 1.906       1.906       0.000
    8 H                 0.961       0.961       0.000
    9 H                 0.997       0.997      -0.000
   10 H                 0.997       0.997      -0.000
   11 H                 0.995       0.995      -0.000
   12 H                 0.996       0.996       0.000
   13 H                 0.997       0.997      -0.000
   14 H                 0.996       0.996       0.000
   15 H                 0.996       0.996      -0.000

          ---------------------
          ELECTROSTATIC MOMENTS
          ---------------------

 POINT   1           X           Y           Z (BOHR)    CHARGE
                -6.151257   -0.191957    0.720647        0.00 (A.U.)
         DX          DY          DZ         /D/  (DEBYE)
     0.946147    0.312463   -2.653015    2.833957
 ...... END OF PROPERTY EVALUATION ......
 STEP CPU TIME =     0.01 TOTAL CPU TIME =         11.4 (      0.2 MIN)
 TOTAL WALL CLOCK TIME=         11.6 SECONDS, CPU UTILIZATION IS    98.44%
  $VIB   
          IVIB=   0 IATOM=   0 ICOORD=   0 E=     -265.6875868590
  1.418669889E-06-6.917526500E-05 3.740928871E-05-1.432674342E-07 4.413006420E-05
 -2.463930261E-05 2.114713096E-05 5.624667385E-06-5.193434573E-06-1.884410327E-05
  4.337824782E-05-1.169069302E-05 1.818089707E-05-4.754717757E-05 6.045285834E-06
 -6.924733048E-05-7.965126092E-05-1.430386461E-05 7.622332637E-05 8.191926824E-05
  2.951614731E-06-1.154765496E-05 3.078272941E-07 9.691853058E-06-3.461518994E-06
  1.498815982E-06 7.094280575E-06-3.817590936E-07-1.519369006E-05-4.724944751E-06
 -2.072168710E-05 1.450415458E-06 1.343453293E-05-1.124186955E-05-7.820621492E-06
 -5.855818717E-06 1.088629829E-06 9.302748241E-07 1.085861089E-05 1.971316800E-05
  8.978232827E-07-4.662492742E-06-2.182621667E-06 3.925060857E-05-1.641490891E-05
  9.461465564E-01 3.124629695E-01-2.653014515E+00
 ......END OF GEOMETRY SEARCH......
 STEP CPU TIME =     0.00 TOTAL CPU TIME =         11.4 (      0.2 MIN)
 TOTAL WALL CLOCK TIME=         11.6 SECONDS, CPU UTILIZATION IS    98.44%
               580000  WORDS OF DYNAMIC MEMORY USED
 EXECUTION OF GAMESS TERMINATED NORMALLY Mon Mar  9 21:13:30 2020
 DDI: 263640 bytes (0.3 MB / 0 MWords) used by master data server.

 ----------------------------------------
 CPU timing information for all processes
 ========================================
 0: 10.956 + 0.435 = 11.391
 1: 0.01 + 0.01 = 0.02
 ----------------------------------------
 ddikick.x: exited gracefully.
unset echo
----- accounting info -----
Files used on the master node 192.168.0.12 were:
-rw-r--r--@ 1 wurthel  staff      908 Mar  9 21:13 .//input/complex_5.F05
-rw-r--r--  1 wurthel  staff  2160192 Mar  9 21:13 .//input/complex_5.F08
-rw-r--r--  1 wurthel  staff  1701440 Mar  9 21:13 .//input/complex_5.F10
-rw-r--r--  1 wurthel  staff  1514303 Mar  9 21:13 .//input/complex_5.dat
-rw-r--r--@ 1 wurthel  staff      908 Mar  9 21:04 .//input/complex_5.inp
-rw-r--r--  1 wurthel  staff   960537 Mar  9 21:13 .//input/complex_5.log
ls: No match.
ls: No match.
ls: No match.
Mon Mar  9 21:13:33 MSK 2020
11.020u 0.490s 0:14.69 78.3%	0+0k 0+0io 0pf+0w
