----- GAMESS execution script 'rungms' -----
This job is running on host 192.168.0.12
under operating system Darwin at Mon Mar 9 21:12:42 MSK 2020
Available scratch disk space (Kbyte units) at beginning of the job is
Filesystem   1024-blocks     Used Available Capacity iused               ifree %iused  Mounted on
/dev/disk1s5   118181844 44017528  70801892    39%  990771 9223372036853785036    0%   /
GAMESS temporary binary files will be written to ./
GAMESS supplementary output files will be written to ./
Copying input file input/complex_3.inp to your run's scratch directory...
cp input/complex_3.inp .//input/complex_3.F05
unset echo
.//ddikick.x .//gamess.30Sep2018R3.x input/complex_3 -ddi 1 1 192.168.0.12 -scr ./

 Distributed Data Interface kickoff program.
 Initiating 1 compute processes on 1 nodes to run the following command:
 .//gamess.30Sep2018R3.x input/complex_3 

          ******************************************************
          *         GAMESS VERSION = 30 SEP 2018 (R3)         *
          *             FROM IOWA STATE UNIVERSITY             *
          * M.W.SCHMIDT, K.K.BALDRIDGE, J.A.BOATZ, S.T.ELBERT, *
          *   M.S.GORDON, J.H.JENSEN, S.KOSEKI, N.MATSUNAGA,   *
          *          K.A.NGUYEN, S.J.SU, T.L.WINDUS,           *
          *       TOGETHER WITH M.DUPUIS, J.A.MONTGOMERY       *
          *         J.COMPUT.CHEM.  14, 1347-1363(1993)        *
          **************** 64 BIT APPLE VERSION ****************

  SINCE 1993, STUDENTS AND POSTDOCS WORKING AT IOWA STATE UNIVERSITY
  AND ALSO IN THEIR VARIOUS JOBS AFTER LEAVING ISU HAVE MADE IMPORTANT
  CONTRIBUTIONS TO THE CODE:
     IVANA ADAMOVIC, CHRISTINE AIKENS, YURI ALEXEEV, POOJA ARORA,
     ANDREY ASADCHEV, ROB BELL, PRADIPTA BANDYOPADHYAY, JONATHAN BENTZ,
     BRETT BODE, KURT BRORSEN, CALEB CARLIN, GALINA CHABAN, WEI CHEN,
     CHEOL HO CHOI, PAUL DAY, ALBERT DEFUSCO, NUWAN DESILVA, TIM DUDLEY,
     DMITRI FEDOROV, ALEX FINDLATER, GRAHAM FLETCHER, MARK FREITAG,
     KURT GLAESEMANN, ANASTASIA GUNINA,
     DAN KEMP, GRANT MERRILL, NORIYUKI MINEZAWA, JONATHAN MULLIN,
     TAKESHI NAGATA, SEAN NEDD, HEATHER NETZLOFF, BOSILJKA NJEGIC, RYAN OLSON,
     MIKE PAK, BUU PHAM,
     SPENCER PRUITT, LUKE ROSKOP, JIM SHOEMAKER, LYUDMILA SLIPCHENKO,
     TONY SMITH, SAROM SOK LEANG, JIE SONG, TETSUYA TAKETSUGU, SIMON WEBB,
     PENG XU, SOOHAENG YOO, FEDERICO ZAHARIEV

  ADDITIONAL CODE HAS BEEN PROVIDED BY COLLABORATORS IN OTHER GROUPS:
     IOWA STATE UNIVERSITY:
          JOE IVANIC, AARON WEST, LAIMUTIS BYTAUTAS, KLAUS RUEDENBERG
     UNIVERSITY OF TOKYO: KIMIHIKO HIRAO, TAKAHITO NAKAJIMA,
          TAKAO TSUNEDA, MUNEAKI KAMIYA, SUSUMU YANAGISAWA,
          KIYOSHI YAGI, MAHITO CHIBA, SEIKEN TOKURA, NAOAKI KAWAKAMI
     UNIVERSITY OF AARHUS: FRANK JENSEN
     UNIVERSITY OF IOWA: VISVALDAS KAIRYS, HUI LI
     NATIONAL INST. OF STANDARDS AND TECHNOLOGY: WALT STEVENS, DAVID GARMER
     UNIVERSITY OF PISA: BENEDETTA MENNUCCI, JACOPO TOMASI
     UNIVERSITY OF MEMPHIS: HENRY KURTZ, PRAKASHAN KORAMBATH
     UNIVERSITY OF ALBERTA: TOBY ZENG, MARIUSZ KLOBUKOWSKI
     UNIVERSITY OF NEW ENGLAND: MARK SPACKMAN
     MIE UNIVERSITY: HIROAKI UMEDA
     NAT. INST. OF ADVANCED INDUSTRIAL SCIENCE AND TECHNOLOGY: KAZUO KITAURA
     MICHIGAN STATE UNIVERSITY:
          KAROL KOWALSKI, MARTA WLOCH, JEFFREY GOUR, JESSE LUTZ,
          WEI LI, JUN SHEN, J. EMILIANO DEUSTUA, PIOTR PIECUCH
     UNIVERSITY OF MINNESOTA:
          YINAN SHU
     UNIVERSITY OF SILESIA: MONIKA MUSIAL, STANISLAW KUCHARSKI
     FACULTES UNIVERSITAIRES NOTRE-DAME DE LA PAIX:
          OLIVIER QUINET, BENOIT CHAMPAGNE
     UNIVERSITY OF CALIFORNIA - SANTA BARBARA: BERNARD KIRTMAN
     INSTITUTE FOR MOLECULAR SCIENCE:
          KAZUYA ISHIMURA, MICHIO KATOUDA, AND SHIGERU NAGASE
     UNIVERSITY OF NOTRE DAME: ANNA POMOGAEVA, DAN CHIPMAN
     KYUSHU UNIVERSITY:
          HARUYUKI NAKANO,
          FENG LONG GU, JACEK KORCHOWIEC, MARCIN MAKOWSKI, AND YURIKO AOKI,
          HIROTOSHI MORI AND EISAKU MIYOSHI
     PENNSYLVANIA STATE UNIVERSITY:
          TZVETELIN IORDANOV, CHET SWALINA, JONATHAN SKONE,
          SHARON HAMMES-SCHIFFER
     WASEDA UNIVERSITY:
          MASATO KOBAYASHI, TOMOKO AKAMA, TSUGUKI TOUMA,
          TAKESHI YOSHIKAWA, YASUHIRO IKABATA, JUNJI SEINO,
          YUYA NAKAJIMA, HIROMI NAKAI
     NANJING UNIVERSITY: SHUHUA LI
     UNIVERSITY OF NEBRASKA:
          PEIFENG SU, DEJUN SI, NANDUN THELLAMUREGE, YALI WANG, HUI LI
     UNIVERSITY OF ZURICH: ROBERTO PEVERATI, KIM BALDRIDGE
     N. COPERNICUS UNIVERSITY AND JACKSON STATE UNIVERSITY:
          MARIA BARYSZ
     UNIVERSITY OF COPENHAGEN: Jimmy Kromann, CASPER STEINMANN
     TOKYO INSTITUTE OF TECHNOLOGY: HIROYA NAKATA
     NAGOYA UNIVERSITY: YOSHIO NISHIMOTO, STEPHAN IRLE
     MOSCOW STATE UNIVERSITY: VLADIMIR MIRONOV

 EXECUTION OF GAMESS BEGUN Mon Mar  9 21:12:43 2020

            ECHO OF THE FIRST FEW INPUT CARDS -
 INPUT CARD>!   File created by the GAMESS Input Deck Generator Plugin for Avogadro         
 INPUT CARD> $BASIS GBASIS=STO NGAUSS=3 $END                                                
 INPUT CARD> $CONTRL SCFTYP=RHF RUNTYP=OPTIMIZE MAXIT=200 $END                              
 INPUT CARD> $STATPT OPTTOL=0.0001 NSTEP=200 $END                                           
 INPUT CARD>                                                                                
 INPUT CARD> $DATA                                                                          
 INPUT CARD>Title                                                                           
 INPUT CARD>C1                                                                              
 INPUT CARD>O     8.0    -4.15553     1.07610     0.20197                                   
 INPUT CARD>H     1.0    -4.41033     1.93750    -0.15593                                   
 INPUT CARD>C     6.0    -2.90373     0.59050    -0.28733                                   
 INPUT CARD>C     6.0    -2.60363    -0.77120     0.34237                                   
 INPUT CARD>C     6.0    -1.26343    -1.29110    -0.18143                                   
 INPUT CARD>H     1.0    -3.78100     3.23225    -1.14117                                   
 INPUT CARD>O     8.0    -3.71092     2.31357    -0.84764                                   
 INPUT CARD>H     1.0    -2.82822     1.93298    -0.95376                                   
 INPUT CARD>H     1.0    -2.95293     0.48670    -1.37123                                   
 INPUT CARD>H     1.0    -2.11363     1.29410    -0.02513                                   
 INPUT CARD>H     1.0    -2.55453    -0.66740     1.42627                                   
 INPUT CARD>H     1.0    -3.39383    -1.47480     0.08027                                   
 INPUT CARD>H     1.0    -1.31253    -1.39490    -1.26533                                   
 INPUT CARD>H     1.0    -0.47323    -0.58750     0.08067                                   
 INPUT CARD>H     1.0    -1.04963    -2.26120     0.26717                                   
 INPUT CARD> $END                                                                           
    1000000 WORDS OF MEMORY AVAILABLE

     BASIS OPTIONS
     -------------
     GBASIS=STO          IGAUSS=       3      POLAR=NONE    
     NDFUNC=       0     NFFUNC=       0     DIFFSP=       F
     NPFUNC=       0      DIFFS=       F     BASNAM=        


     RUN TITLE
     ---------
 Title                                                                           

 THE POINT GROUP OF THE MOLECULE IS C1      
 THE ORDER OF THE PRINCIPAL AXIS IS     0

 ATOM      ATOMIC                      COORDINATES (BOHR)
           CHARGE         X                   Y                   Z
 O           8.0    -7.8528130338        2.0335341354        0.3816679577
 H           1.0    -8.3343152154        3.6613441012       -0.2946649733
 C           6.0    -5.4872540423        1.1158831957       -0.5429749681
 C           6.0    -4.9201472734       -1.4573566817        0.6469854864
 C           6.0    -2.3875365047       -2.4398252227       -0.3428529860
 H           1.0    -7.1450539596        6.1080668238       -2.1564986054
 O           8.0    -7.0126219624        4.3720133534       -1.6018073362
 H           1.0    -5.3445608330        3.6528025397       -1.8023450580
 H           1.0    -5.5802285609        0.9197296382       -2.5912489661
 H           1.0    -3.9941815394        2.4454944007       -0.0474888141
 H           1.0    -4.8273617274       -1.2612031242        2.6952594845
 H           1.0    -6.4134087489       -2.7869678867        0.1516883050
 H           1.0    -2.4803220507       -2.6359787803       -2.3911269840
 H           1.0    -0.8942750292       -1.1102140178        0.1524441954
 H           1.0    -1.9835130885       -4.2730484034        0.5048780921

          INTERNUCLEAR DISTANCES (ANGS.)
          ------------------------------

                1 O          2 H          3 C          4 C          5 C     

   1 O       0.0000000    0.9669671 *  1.4290644 *  2.4167381 *  3.7569767  
   2 H       0.9669671 *  0.0000000    2.0252206 *  3.2938615    4.5086015  
   3 C       1.4290644 *  2.0252206 *  0.0000000    1.5299703 *  2.4984430 *
   4 C       2.4167381 *  3.2938615    1.5299703 *  0.0000000    1.5299668 *
   5 C       3.7569767    4.5086015    2.4984430 *  1.5299668 *  0.0000000  
   6 H       2.5677384 *  1.7444574 *  2.9116127 *  4.4288489    5.2649743  
   7 O       1.6824658 *  1.0531219 *  1.9835507 *  3.4868354    4.4076852  
   8 H       1.9574746 *  1.7718988 *  1.5006943 *  3.0071553    3.6660269  
   9 H       2.0660584 *  2.3886794 *  1.0899699 *  2.1542395 *  2.7259140 *
  10 H       2.0660237 *  2.3887032 *  1.0899816 *  2.1542099 *  2.7258996 *
  11 H       2.6649397 *  3.5683126    2.1542233 *  1.0899653 *  2.1542145 *
  12 H       2.6649744 *  3.5683125    2.1542497 *  1.0900300 *  2.1542601 *
  13 H       4.0424571    4.6831638    2.7258420 *  2.1542145 *  1.0899653 *
  14 H       4.0424760    4.6831999    2.7258830 *  2.1542601 *  1.0900300 *
  15 H       4.5594339    5.3946640    3.4463531    2.1542217 *  1.0899754 *

                6 H          7 O          8 H          9 H         10 H     

   1 O       2.5677384 *  1.6824658 *  1.9574746 *  2.0660584 *  2.0660237 *
   2 H       1.7444574 *  1.0531219 *  1.7718988 *  2.3886794 *  2.3887032 *
   3 C       2.9116127 *  1.9835507 *  1.5006943 *  1.0899699 *  1.0899816 *
   4 C       4.4288489    3.4868354    3.0071553    2.1542395 *  2.1542099 *
   5 C       5.2649743    4.4076852    3.6660269    2.7259140 *  2.7258996 *
   6 H       0.0000000    0.9669767 *  1.6220403 *  2.8769206 *  2.7896404 *
   7 O       0.9669767 *  0.0000000    0.9670933 *  2.0460081 *  2.0657147 *
   8 H       1.6220403 *  0.9670933 *  0.0000000    1.5104832 *  1.3346011 *
   9 H       2.8769206 *  2.0460081 *  1.5104832 *  0.0000000    1.7799732 *
  10 H       2.7896404 *  2.0657147 *  1.3346011 *  1.7799732 *  0.0000000  
  11 H       4.8273437    3.9235299    3.5357354    3.0523230    2.4796042 *
  12 H       4.8783333    3.9132225    3.6058421    2.4796627 *  3.0523480  
  13 H       5.2458819    4.4361570    3.6700378    2.4985087 *  3.0676666  
  14 H       5.1985311    4.4452900    3.6012280    3.0677078    2.4985044 *
  15 H       6.2945847    5.4086770    4.7164816    3.7226147    3.7225923  

               11 H         12 H         13 H         14 H         15 H     

   1 O       2.6649397 *  2.6649744 *  4.0424571    4.0424760    4.5594339  
   2 H       3.5683126    3.5683125    4.6831638    4.6831999    5.3946640  
   3 C       2.1542233 *  2.1542497 *  2.7258420 *  2.7258830 *  3.4463531  
   4 C       1.0899653 *  1.0900300 *  2.1542145 *  2.1542601 *  2.1542217 *
   5 C       2.1542145 *  2.1542601 *  1.0899653 *  1.0900300 *  1.0899754 *
   6 H       4.8273437    4.8783333    5.2458819    5.1985311    6.2945847  
   7 O       3.9235299    3.9132225    4.4361570    4.4452900    5.4086770  
   8 H       3.5357354    3.6058421    3.6700378    3.6012280    4.7164816  
   9 H       3.0523230    2.4796627 *  2.4985087 *  3.0677078    3.7226147  
  10 H       2.4796042 *  3.0523480    3.0676666    2.4985044 *  3.7225923  
  11 H       0.0000000    1.7798975 *  3.0522993    2.4796841 *  2.4796039 *
  12 H       1.7798975 *  0.0000000    2.4796841 *  3.0524098    2.4796432 *
  13 H       3.0522993    2.4796841 *  0.0000000    1.7798975 *  1.7799293 *
  14 H       2.4796841 *  3.0524098    1.7798975 *  0.0000000    1.7799694 *
  15 H       2.4796039 *  2.4796432 *  1.7799293 *  1.7799694 *  0.0000000  

  * ... LESS THAN  3.000


     ATOMIC BASIS SET
     ----------------
 THE CONTRACTED PRIMITIVE FUNCTIONS HAVE BEEN UNNORMALIZED
 THE CONTRACTED BASIS FUNCTIONS ARE NOW NORMALIZED TO UNITY

  SHELL TYPE  PRIMITIVE        EXPONENT          CONTRACTION COEFFICIENT(S)

 O         

      1   S       1           130.7093214    0.154328967295
      1   S       2            23.8088661    0.535328142282
      1   S       3             6.4436083    0.444634542185

      2   L       4             5.0331513   -0.099967229187    0.155916274999
      2   L       5             1.1695961    0.399512826089    0.607683718598
      2   L       6             0.3803890    0.700115468880    0.391957393099

 H         

      3   S       7             3.4252509    0.154328967295
      3   S       8             0.6239137    0.535328142282
      3   S       9             0.1688554    0.444634542185

 C         

      4   S      10            71.6168373    0.154328967295
      4   S      11            13.0450963    0.535328142282
      4   S      12             3.5305122    0.444634542185

      5   L      13             2.9412494   -0.099967229187    0.155916274999
      5   L      14             0.6834831    0.399512826089    0.607683718598
      5   L      15             0.2222899    0.700115468880    0.391957393099

 C         

      6   S      16            71.6168373    0.154328967295
      6   S      17            13.0450963    0.535328142282
      6   S      18             3.5305122    0.444634542185

      7   L      19             2.9412494   -0.099967229187    0.155916274999
      7   L      20             0.6834831    0.399512826089    0.607683718598
      7   L      21             0.2222899    0.700115468880    0.391957393099

 C         

      8   S      22            71.6168373    0.154328967295
      8   S      23            13.0450963    0.535328142282
      8   S      24             3.5305122    0.444634542185

      9   L      25             2.9412494   -0.099967229187    0.155916274999
      9   L      26             0.6834831    0.399512826089    0.607683718598
      9   L      27             0.2222899    0.700115468880    0.391957393099

 H         

     10   S      28             3.4252509    0.154328967295
     10   S      29             0.6239137    0.535328142282
     10   S      30             0.1688554    0.444634542185

 O         

     11   S      31           130.7093214    0.154328967295
     11   S      32            23.8088661    0.535328142282
     11   S      33             6.4436083    0.444634542185

     12   L      34             5.0331513   -0.099967229187    0.155916274999
     12   L      35             1.1695961    0.399512826089    0.607683718598
     12   L      36             0.3803890    0.700115468880    0.391957393099

 H         

     13   S      37             3.4252509    0.154328967295
     13   S      38             0.6239137    0.535328142282
     13   S      39             0.1688554    0.444634542185

 H         

     14   S      40             3.4252509    0.154328967295
     14   S      41             0.6239137    0.535328142282
     14   S      42             0.1688554    0.444634542185

 H         

     15   S      43             3.4252509    0.154328967295
     15   S      44             0.6239137    0.535328142282
     15   S      45             0.1688554    0.444634542185

 H         

     16   S      46             3.4252509    0.154328967295
     16   S      47             0.6239137    0.535328142282
     16   S      48             0.1688554    0.444634542185

 H         

     17   S      49             3.4252509    0.154328967295
     17   S      50             0.6239137    0.535328142282
     17   S      51             0.1688554    0.444634542185

 H         

     18   S      52             3.4252509    0.154328967295
     18   S      53             0.6239137    0.535328142282
     18   S      54             0.1688554    0.444634542185

 H         

     19   S      55             3.4252509    0.154328967295
     19   S      56             0.6239137    0.535328142282
     19   S      57             0.1688554    0.444634542185

 H         

     20   S      58             3.4252509    0.154328967295
     20   S      59             0.6239137    0.535328142282
     20   S      60             0.1688554    0.444634542185

 TOTAL NUMBER OF BASIS SET SHELLS             =   20
 NUMBER OF CARTESIAN GAUSSIAN BASIS FUNCTIONS =   35
 NUMBER OF ELECTRONS                          =   44
 CHARGE OF MOLECULE                           =    0
 SPIN MULTIPLICITY                            =    1
 NUMBER OF OCCUPIED ORBITALS (ALPHA)          =   22
 NUMBER OF OCCUPIED ORBITALS (BETA )          =   22
 TOTAL NUMBER OF ATOMS                        =   15
 THE NUCLEAR REPULSION ENERGY IS      211.5375974752

     $CONTRL OPTIONS
     ---------------
 SCFTYP=RHF          RUNTYP=OPTIMIZE     EXETYP=RUN     
 MPLEVL=       0     CITYP =NONE         CCTYP =NONE         VBTYP =NONE    
 DFTTYP=NONE         TDDFT =NONE    
 MULT  =       1     ICHARG=       0     NZVAR =       0     COORD =UNIQUE  
 PP    =NONE         RELWFN=NONE         LOCAL =NONE         NUMGRD=       F
 ISPHER=      -1     NOSYM =       0     MAXIT =     200     UNITS =ANGS    
 PLTORB=       F     MOLPLT=       F     AIMPAC=       F     FRIEND=        
 NPRINT=       7     IREST =       0     GEOM  =INPUT   
 NORMF =       0     NORMP =       0     ITOL  =      20     ICUT  =       9
 INTTYP=BEST         GRDTYP=BEST         QMTTOL= 1.0E-06

     $SYSTEM OPTIONS
     ---------------
  REPLICATED MEMORY=     1000000 WORDS (ON EVERY NODE).
 DISTRIBUTED MEMDDI=           0 MILLION WORDS IN AGGREGATE,
 MEMDDI DISTRIBUTED OVER   1 PROCESSORS IS           0 WORDS/PROCESSOR.
 TOTAL MEMORY REQUESTED ON EACH PROCESSOR=     1000000 WORDS.
 TIMLIM=      525600.00 MINUTES, OR     365.0 DAYS.
 PARALL= F  BALTYP=  DLB     KDIAG=    0  COREFL= F
 MXSEQ2=     300 MXSEQ3=     150  mem10=         0

          ----------------
          PROPERTIES INPUT
          ----------------

     MOMENTS            FIELD           POTENTIAL          DENSITY
 IEMOM =       1   IEFLD =       0   IEPOT =       0   IEDEN =       0
 WHERE =COMASS     WHERE =NUCLEI     WHERE =NUCLEI     WHERE =NUCLEI  
 OUTPUT=BOTH       OUTPUT=BOTH       OUTPUT=BOTH       OUTPUT=BOTH    
 IEMINT=       0   IEFINT=       0                     IEDINT=       0
                                                       MORB  =       0
          EXTRAPOLATION IN EFFECT
          SOSCF IN EFFECT
 ORBITAL PRINTING OPTION: NPREO=     1    35     2     1

     -------------------------------
     INTEGRAL TRANSFORMATION OPTIONS
     -------------------------------
     NWORD  =            0
     CUTOFF = 1.0E-09     MPTRAN =       0
     DIRTRF =       F     AOINTS =DUP     

          ----------------------
          INTEGRAL INPUT OPTIONS
          ----------------------
 NOPK  =       1 NORDER=       0 SCHWRZ=       T

     ------------------------------------------
     THE POINT GROUP IS C1 , NAXIS= 0, ORDER= 1
     ------------------------------------------

     DIMENSIONS OF THE SYMMETRY SUBSPACES ARE
 A   =   35

 ..... DONE SETTING UP THE RUN .....
 STEP CPU TIME =     0.00 TOTAL CPU TIME =          0.0 (      0.0 MIN)
 TOTAL WALL CLOCK TIME=          0.0 SECONDS, CPU UTILIZATION IS     0.00%


          -----------------------------
          STATIONARY POINT LOCATION RUN
          -----------------------------

 OBTAINING INITIAL HESSIAN, HESS=GUESS   
 CARTESIAN COORDINATE OPTIMIZATION USING BADGER'S RULE FORCE CONSTANT GUESS

          PARAMETERS CONTROLLING GEOMETRY SEARCH ARE
          METHOD =QA                  UPHESS =BFGS    
          NNEG   =         0          NFRZ   =         0
          NSTEP  =       200          IFOLOW =         1
          HESS   =GUESS               RESTAR =         F
          IHREP  =         0          HSSEND =         F
          NPRT   =         0          NPUN   =         0
          OPTTOL = 1.000E-04          RMIN   = 1.500E-03
          RMAX   = 1.000E-01          RLIM   = 7.000E-02
          DXMAX  = 3.000E-01          PURIFY =         F
          MOVIE  =         F          TRUPD  =         T
          TRMAX  = 5.000E-01          TRMIN  = 5.000E-02
          ITBMAT =         5          STPT   =         F
          STSTEP = 1.000E-02          PROJCT=          T

 BEGINNING GEOMETRY SEARCH POINT NSERCH=   0 ...

 COORDINATES OF ALL ATOMS ARE (ANGS)
   ATOM   CHARGE       X              Y              Z
 ------------------------------------------------------------
 O           8.0  -4.1555300000   1.0761000000   0.2019700000
 H           1.0  -4.4103300000   1.9375000000  -0.1559300000
 C           6.0  -2.9037300000   0.5905000000  -0.2873300000
 C           6.0  -2.6036300000  -0.7712000000   0.3423700000
 C           6.0  -1.2634300000  -1.2911000000  -0.1814300000
 H           1.0  -3.7810000000   3.2322500000  -1.1411700000
 O           8.0  -3.7109200000   2.3135700000  -0.8476400000
 H           1.0  -2.8282200000   1.9329800000  -0.9537600000
 H           1.0  -2.9529300000   0.4867000000  -1.3712300000
 H           1.0  -2.1136300000   1.2941000000  -0.0251300000
 H           1.0  -2.5545300000  -0.6674000000   1.4262700000
 H           1.0  -3.3938300000  -1.4748000000   0.0802700000
 H           1.0  -1.3125300000  -1.3949000000  -1.2653300000
 H           1.0  -0.4732300000  -0.5875000000   0.0806700000
 H           1.0  -1.0496300000  -2.2612000000   0.2671700000

          ********************
          1 ELECTRON INTEGRALS
          ********************
 ...... END OF ONE-ELECTRON INTEGRALS ......
 STEP CPU TIME =     0.01 TOTAL CPU TIME =          0.0 (      0.0 MIN)
 TOTAL WALL CLOCK TIME=          0.0 SECONDS, CPU UTILIZATION IS    50.00%

          -------------
          GUESS OPTIONS
          -------------
          GUESS =HUCKEL            NORB  =       0          NORDER=       0
          MIX   =       F          PRTMO =       F          PUNMO =       F
          TOLZ  = 1.0E-08          TOLE  = 1.0E-05
          SYMDEN=       F          PURIFY=       F

 INITIAL GUESS ORBITALS GENERATED BY HUCKEL   ROUTINE.
 HUCKEL GUESS REQUIRES     23880 WORDS.

 SYMMETRIES FOR INITIAL GUESS ORBITALS FOLLOW.   BOTH SET(S).
    22 ORBITALS ARE OCCUPIED (    5 CORE ORBITALS).
     6=A        7=A        8=A        9=A       10=A       11=A       12=A   
    13=A       14=A       15=A       16=A       17=A       18=A       19=A   
    20=A       21=A       22=A       23=A       24=A       25=A       26=A   
    27=A       28=A       29=A       30=A       31=A       32=A   
 ...... END OF INITIAL ORBITAL SELECTION ......
 STEP CPU TIME =     0.00 TOTAL CPU TIME =          0.0 (      0.0 MIN)
 TOTAL WALL CLOCK TIME=          0.0 SECONDS, CPU UTILIZATION IS    50.00%

                    ----------------------
                    AO INTEGRAL TECHNOLOGY
                    ----------------------
     S,P,L SHELL ROTATED AXIS INTEGRALS, REPROGRAMMED BY
        KAZUYA ISHIMURA (IMS) AND JOSE SIERRA (SYNSTAR).
     S,P,D,L SHELL ROTATED AXIS INTEGRALS PROGRAMMED BY
        KAZUYA ISHIMURA (INSTITUTE FOR MOLECULAR SCIENCE).
     S,P,D,F,G SHELL TO TOTAL QUARTET ANGULAR MOMENTUM SUM 5,
        ERIC PROGRAM BY GRAHAM FLETCHER (ELORET AND NASA ADVANCED
        SUPERCOMPUTING DIVISION, AMES RESEARCH CENTER).
     S,P,D,F,G,L SHELL GENERAL RYS QUADRATURE PROGRAMMED BY
        MICHEL DUPUIS (PACIFIC NORTHWEST NATIONAL LABORATORY).

          --------------------
          2 ELECTRON INTEGRALS
          --------------------

 THE -PK- OPTION IS OFF, THE INTEGRALS ARE NOT IN SUPERMATRIX FORM.
 STORING   15000 INTEGRALS/RECORD ON DISK, USING 12 BYTES/INTEGRAL.
 TWO ELECTRON INTEGRAL EVALUATION REQUIRES   89566 WORDS OF MEMORY.
 SCHWARZ INEQUALITY OVERHEAD:       625 INTEGRALS, T=        0.00
 II,JST,KST,LST =  1  1  1  1 NREC =         1 INTLOC =    1
 II,JST,KST,LST =  2  1  1  1 NREC =         1 INTLOC =    2
 II,JST,KST,LST =  3  1  1  1 NREC =         1 INTLOC =   34
 II,JST,KST,LST =  4  1  1  1 NREC =         1 INTLOC =  145
 II,JST,KST,LST =  5  1  1  1 NREC =         1 INTLOC =  306
 II,JST,KST,LST =  6  1  1  1 NREC =         1 INTLOC = 2004
 II,JST,KST,LST =  7  1  1  1 NREC =         1 INTLOC = 2761
 II,JST,KST,LST =  8  1  1  1 NREC =         1 INTLOC = 8781
 II,JST,KST,LST =  9  1  1  1 NREC =         1 INTLOC =10268
 II,JST,KST,LST = 10  1  1  1 NREC =         2 INTLOC = 9347
 II,JST,KST,LST = 11  1  1  1 NREC =         2 INTLOC =14101
 II,JST,KST,LST = 12  1  1  1 NREC =         3 INTLOC = 2997
 II,JST,KST,LST = 13  1  1  1 NREC =         5 INTLOC = 1844
 II,JST,KST,LST = 14  1  1  1 NREC =         5 INTLOC =12151
 II,JST,KST,LST = 15  1  1  1 NREC =         6 INTLOC = 8716
 II,JST,KST,LST = 16  1  1  1 NREC =         7 INTLOC = 6566
 II,JST,KST,LST = 17  1  1  1 NREC =         8 INTLOC = 5640
 II,JST,KST,LST = 18  1  1  1 NREC =         9 INTLOC = 6146
 II,JST,KST,LST = 19  1  1  1 NREC =        10 INTLOC = 7799
 II,JST,KST,LST = 20  1  1  1 NREC =        11 INTLOC =11105
 SCHWARZ INEQUALITY TEST SKIPPED        2857 INTEGRAL BLOCKS.
 TOTAL NUMBER OF NONZERO TWO-ELECTRON INTEGRALS =              179731
         12 INTEGRAL RECORDS WERE STORED ON DISK FILE  8.
  ...... END OF TWO-ELECTRON INTEGRALS .....
 STEP CPU TIME =     0.04 TOTAL CPU TIME =          0.1 (      0.0 MIN)
 TOTAL WALL CLOCK TIME=          0.1 SECONDS, CPU UTILIZATION IS    83.33%

          --------------------------
                 RHF SCF CALCULATION
          --------------------------

     NUCLEAR ENERGY =       211.5375974752
     MAXIT =  200     NPUNCH=    2
     EXTRAP=T  DAMP=F  SHIFT=F  RSTRCT=F  DIIS=F  DEM=F  SOSCF=T
     DENSITY MATRIX CONV=  1.00E-05
     SOSCF WILL OPTIMIZE     286 ORBITAL ROTATIONS, SOGTOL=   0.250
     MEMORY REQUIRED FOR RHF ITERS=     40209 WORDS.

 ITER EX DEM     TOTAL ENERGY        E CHANGE  DENSITY CHANGE     ORB. GRAD
   1  0  0     -264.8670930140  -264.8670930140   0.721528571   0.000000000
          ---------------START SECOND ORDER SCF---------------
   2  1  0     -265.3264225241    -0.4593295101   0.171214559   0.039676234
   3  2  0     -265.3529363891    -0.0265138650   0.097850313   0.014083962
   4  3  0     -265.3552276365    -0.0022912474   0.005531178   0.002822263
   5  4  0     -265.3553196482    -0.0000920118   0.002565269   0.000782917
   6  5  0     -265.3553302040    -0.0000105557   0.000792687   0.000167396
   7  6  0     -265.3553307458    -0.0000005418   0.000068589   0.000033176
   8  7  0     -265.3553307672    -0.0000000214   0.000035241   0.000008463
   9  8  0     -265.3553307691    -0.0000000019   0.000006872   0.000001463
  10  9  0     -265.3553307692    -0.0000000001   0.000001458   0.000000447

          -----------------
          DENSITY CONVERGED
          -----------------
     TIME TO FORM FOCK OPERATORS=       0.0 SECONDS (       0.0 SEC/ITER)
     TIME TO SOLVE SCF EQUATIONS=       0.0 SECONDS (       0.0 SEC/ITER)

 FINAL RHF ENERGY IS     -265.3553307692 AFTER  10 ITERATIONS

          ------------
          EIGENVECTORS
          ------------

                      1          2          3          4          5
                  -20.2911   -20.0343   -11.0605   -11.0270   -11.0226
                     A          A          A          A          A   
    1  O  1  S   -0.000101   0.993986   0.000439   0.000015  -0.000004
    2  O  1  S    0.000913   0.026959  -0.004531  -0.000109   0.000214
    3  O  1  X   -0.000834   0.001947  -0.002389  -0.000060   0.000103
    4  O  1  Y    0.000204   0.002062   0.001152   0.000055   0.000031
    5  O  1  Z    0.000425  -0.002447   0.000792   0.000004  -0.000084
    6  H  2  S   -0.004963  -0.006859  -0.000195  -0.000015  -0.000031
    7  C  3  S    0.000050   0.000557   0.991987   0.001257   0.003975
    8  C  3  S    0.000132  -0.004470   0.036664   0.000273  -0.005643
    9  C  3  X    0.000223   0.003644   0.000929  -0.000165  -0.000791
   10  C  3  Y   -0.000186  -0.001467   0.000832  -0.000115   0.003858
   11  C  3  Z   -0.000071  -0.001388  -0.000979   0.000173  -0.001821
   12  C  4  S    0.000009  -0.000021  -0.002958  -0.031407   0.991428
   13  C  4  S   -0.000098   0.000346  -0.005551  -0.006910   0.037353
   14  C  4  X   -0.000057  -0.000194   0.000824  -0.003719  -0.000082
   15  C  4  Y   -0.000067   0.000164  -0.003657   0.001454  -0.000019
   16  C  4  Z    0.000056   0.000024   0.001661   0.001447   0.000067
   17  C  5  S    0.000000   0.000010  -0.001293   0.991410   0.032399
   18  C  5  S    0.000020  -0.000042   0.000022   0.037984  -0.004574
   19  C  5  X   -0.000001   0.000042  -0.000010  -0.000007   0.003797
   20  C  5  Y   -0.000014  -0.000108  -0.000228   0.000039  -0.001452
   21  C  5  Z    0.000012   0.000038   0.000145  -0.000014  -0.001497
   22  H  6  S   -0.005475   0.000100   0.000040  -0.000001  -0.000004
   23  O  7  S    0.993827   0.000098   0.000082   0.000001   0.000009
   24  O  7  S    0.028510   0.000699  -0.000146  -0.000010  -0.000045
   25  O  7  X    0.001497  -0.000860   0.000090  -0.000011   0.000006
   26  O  7  Y    0.001056   0.000733   0.000892   0.000005   0.000069
   27  O  7  Z   -0.000049   0.000057  -0.000427   0.000002  -0.000033
   28  H  8  S   -0.006000   0.000626  -0.002555   0.000028  -0.000181
   29  H  9  S    0.000331   0.000303  -0.006887   0.000012   0.000038
   30  H 10  S    0.000873   0.000246  -0.006744   0.000009   0.000053
   31  H 11  S   -0.000007  -0.000080   0.000002   0.000290  -0.006997
   32  H 12  S   -0.000008  -0.000080   0.000001   0.000290  -0.006994
   33  H 13  S   -0.000007  -0.000022   0.000032  -0.006983  -0.000188
   34  H 14  S   -0.000022  -0.000020   0.000026  -0.006985  -0.000188
   35  H 15  S   -0.000009  -0.000029  -0.000144  -0.006964  -0.000148

                      6          7          8          9         10
                   -1.4090    -1.1558    -1.0017    -0.8986    -0.7954
                     A          A          A          A          A   
    1  O  1  S   -0.082390  -0.191532   0.057009   0.043189  -0.004328
    2  O  1  S    0.264724   0.685057  -0.215317  -0.168724   0.017326
    3  O  1  X    0.027655   0.052268   0.033496   0.088972  -0.022063
    4  O  1  Y    0.056016   0.047043  -0.063910  -0.091632  -0.036647
    5  O  1  Z   -0.049929  -0.059341   0.017868   0.002804   0.031827
    6  H  2  S    0.108155   0.111530  -0.100042  -0.168980   0.028051
    7  C  3  S   -0.039713  -0.088930  -0.095580  -0.134860  -0.001989
    8  C  3  S    0.092326   0.245888   0.260265   0.396009   0.002138
    9  C  3  X   -0.026668  -0.080295   0.075446   0.052023  -0.007658
   10  C  3  Y    0.035232   0.033040  -0.057893   0.077597  -0.177620
   11  C  3  Z   -0.002917   0.032157  -0.008239  -0.066218   0.099891
   12  C  4  S   -0.004314  -0.030621  -0.151794   0.029388  -0.134796
   13  C  4  S    0.010570   0.076575   0.409846  -0.082537   0.407838
   14  C  4  X   -0.001790  -0.008254   0.045437  -0.068984  -0.104603
   15  C  4  Y    0.005379   0.023953   0.012082   0.090256   0.030503
   16  C  4  Z   -0.002160  -0.009186  -0.034942  -0.010039   0.045471
   17  C  5  S   -0.000706  -0.009725  -0.131983   0.127155   0.118874
   18  C  5  S    0.001692   0.024714   0.358073  -0.363770  -0.359653
   19  C  5  X   -0.000641  -0.007496  -0.053115  -0.000608  -0.118696
   20  C  5  Y    0.000340   0.004544   0.028395   0.011897   0.038369
   21  C  5  Z    0.000206   0.001971   0.016399  -0.006552   0.050061
   22  H  6  S    0.087744  -0.125730   0.013945  -0.062405   0.152483
   23  O  7  S   -0.207707   0.112914  -0.003881   0.021982  -0.019238
   24  O  7  S    0.729720  -0.435004   0.014755  -0.095522   0.084651
   25  O  7  X    0.034197  -0.062436   0.074159   0.204441  -0.159148
   26  O  7  Y   -0.015110  -0.104388   0.013619  -0.078013   0.184811
   27  O  7  Z    0.030529   0.073294  -0.048474  -0.071574  -0.017179
   28  H  8  S    0.125605  -0.086477   0.067610   0.185719  -0.168830
   29  H  9  S    0.013667   0.033993   0.075850   0.145057  -0.051577
   30  H 10  S    0.014048   0.036927   0.082753   0.165461  -0.069224
   31  H 11  S    0.001106   0.014792   0.090864  -0.026597   0.155636
   32  H 12  S    0.001110   0.014756   0.090484  -0.027351   0.156639
   33  H 13  S    0.000109   0.004699   0.086724  -0.101928  -0.146690
   34  H 14  S    0.000085   0.004683   0.087080  -0.101944  -0.147859
   35  H 15  S    0.000102   0.003637   0.079991  -0.112690  -0.138282

                     11         12         13         14         15
                   -0.6795    -0.6596    -0.6175    -0.5407    -0.5279
                     A          A          A          A          A   
    1  O  1  S   -0.061053  -0.074871   0.003740  -0.003009  -0.021031
    2  O  1  S    0.263965   0.334700  -0.018060   0.012750   0.101161
    3  O  1  X    0.046351   0.051633   0.058304   0.047774  -0.062293
    4  O  1  Y   -0.208143  -0.161057   0.097210   0.097771  -0.005387
    5  O  1  Z    0.098406   0.092120   0.117578   0.125405   0.036882
    6  H  2  S   -0.163018  -0.227097   0.033542   0.024987  -0.008329
    7  C  3  S   -0.063697   0.075928  -0.001076   0.005423   0.043632
    8  C  3  S    0.221586  -0.238791  -0.000629  -0.024165  -0.155579
    9  C  3  X   -0.062479  -0.208711   0.207172   0.140769  -0.008663
   10  C  3  Y   -0.056789   0.075013   0.161295   0.103163  -0.156619
   11  C  3  Z    0.067912   0.137435   0.283026   0.172881   0.087079
   12  C  4  S    0.066991  -0.024449  -0.000069  -0.002358  -0.024011
   13  C  4  S   -0.217155   0.079841   0.000033   0.008073   0.087699
   14  C  4  X   -0.003499  -0.048055   0.141590  -0.091331   0.057670
   15  C  4  Y    0.133141  -0.127218   0.138624  -0.106370   0.126767
   16  C  4  Z   -0.079943   0.128058   0.204922  -0.177732  -0.107437
   17  C  5  S   -0.026940  -0.006111   0.001218   0.000605  -0.000061
   18  C  5  S    0.086862   0.018672  -0.003897  -0.001670   0.002679
   19  C  5  X    0.101218  -0.003402   0.087161  -0.197502  -0.013779
   20  C  5  Y    0.008480  -0.085269   0.100108  -0.156054   0.437920
   21  C  5  Z   -0.069261   0.064831   0.141192  -0.296152  -0.240202
   22  H  6  S    0.378139   0.003328   0.021857   0.031742  -0.104310
   23  O  7  S    0.013557   0.011282   0.007432   0.014177  -0.010912
   24  O  7  S   -0.073858  -0.059991  -0.038000  -0.073771   0.052508
   25  O  7  X   -0.045861   0.457330   0.033259   0.148745   0.188012
   26  O  7  Y    0.449158  -0.007194   0.110646   0.180407  -0.125298
   27  O  7  Z   -0.224989  -0.213452   0.183164   0.296447  -0.045888
   28  H  8  S   -0.164252   0.273763  -0.007679   0.029818   0.128005
   29  H  9  S    0.032629  -0.182856  -0.266266  -0.193854  -0.111129
   30  H 10  S    0.024824  -0.129064   0.294128   0.209225  -0.129638
   31  H 11  S   -0.122567   0.110100   0.167870  -0.155587  -0.041428
   32  H 12  S   -0.120375   0.090674  -0.180936   0.150980  -0.045810
   33  H 13  S    0.077577  -0.038113  -0.127607   0.274639   0.174646
   34  H 14  S    0.076680  -0.026600   0.131675  -0.273781   0.190370
   35  H 15  S    0.020994   0.079216  -0.012126  -0.019623  -0.436488

                     16         17         18         19         20
                   -0.4789    -0.4647    -0.4317    -0.4297    -0.3912
                     A          A          A          A          A   
    1  O  1  S   -0.061060   0.019021  -0.013745   0.018238   0.037256
    2  O  1  S    0.284163  -0.090065   0.062767  -0.084467  -0.185022
    3  O  1  X   -0.236226   0.072668  -0.116022   0.098429   0.416484
    4  O  1  Y    0.103332   0.016079   0.059126  -0.076305  -0.113665
    5  O  1  Z    0.077213   0.001003  -0.019017  -0.040664  -0.178836
    6  H  2  S    0.058375   0.004688   0.044785  -0.040261  -0.153318
    7  C  3  S    0.036130  -0.008503   0.016659  -0.019081  -0.021429
    8  C  3  S   -0.148555   0.031307  -0.076703   0.085586   0.118834
    9  C  3  X    0.167725  -0.108647   0.007035  -0.168664  -0.332347
   10  C  3  Y    0.032487  -0.075692   0.105274  -0.260890   0.369762
   11  C  3  Z   -0.233586  -0.076061  -0.291297   0.039937  -0.003364
   12  C  4  S   -0.012151   0.003453   0.009201  -0.009275   0.008255
   13  C  4  S    0.046539  -0.014647  -0.044000   0.044206  -0.028150
   14  C  4  X    0.309803  -0.226781  -0.024957   0.264750   0.209989
   15  C  4  Y   -0.186062  -0.055625  -0.047748   0.306039  -0.293839
   16  C  4  Z   -0.140188  -0.101188   0.423509  -0.004104   0.039332
   17  C  5  S   -0.007168   0.004761   0.011924  -0.011125  -0.020582
   18  C  5  S    0.034251  -0.020688  -0.049039   0.045619   0.082448
   19  C  5  X   -0.292475   0.258909   0.080145  -0.206079  -0.223821
   20  C  5  Y    0.134583   0.099709  -0.007012  -0.136538   0.204604
   21  C  5  Z    0.232484   0.140557  -0.264929   0.022460   0.018795
   22  H  6  S    0.138900   0.013044   0.119987  -0.087092   0.079080
   23  O  7  S    0.044644   0.009200   0.034331  -0.020367  -0.006263
   24  O  7  S   -0.241563  -0.044556  -0.183492   0.112470   0.050539
   25  O  7  X    0.210866   0.260637   0.094802   0.202968  -0.204772
   26  O  7  Y    0.238891   0.261578   0.233318   0.032464   0.054904
   27  O  7  Z   -0.019537   0.612475   0.155287   0.387225   0.130843
   28  H  8  S    0.082759   0.020230   0.005803   0.024624  -0.165594
   29  H  9  S    0.147112   0.063047   0.274123   0.022198  -0.013390
   30  H 10  S    0.044503  -0.101173  -0.027690  -0.289070  -0.007277
   31  H 11  S   -0.112616  -0.117737   0.410340   0.055773   0.001274
   32  H 12  S   -0.044701   0.208954  -0.071818  -0.382975   0.009153
   33  H 13  S   -0.206640  -0.169658   0.272671   0.023431   0.010028
   34  H 14  S   -0.051675   0.277155  -0.036221  -0.245802   0.013219
   35  H 15  S   -0.063543   0.010391  -0.115134   0.117514  -0.210724

                     21         22         23         24         25
                   -0.2467    -0.1888     0.5417     0.6143     0.6366
                     A          A          A          A          A   
    1  O  1  S    0.000032   0.023961  -0.058715  -0.046268  -0.014717
    2  O  1  S    0.000823  -0.133013   0.371596   0.299714   0.089178
    3  O  1  X    0.452679   0.201744   0.183362   0.181042   0.128792
    4  O  1  Y    0.447412   0.641681   0.104458  -0.119338   0.044572
    5  O  1  Z    0.721565  -0.529793  -0.225098  -0.040499   0.019147
    6  H  2  S    0.000871   0.152238  -0.307623  -0.272996  -0.047596
    7  C  3  S   -0.001583  -0.016443  -0.048675   0.008903   0.009401
    8  C  3  S    0.007972   0.065640   0.323493   0.034408  -0.047230
    9  C  3  X   -0.016526  -0.085867   0.504865   0.426991  -0.184431
   10  C  3  Y   -0.017912  -0.012792  -0.133343   0.351365  -0.294942
   11  C  3  Z   -0.043599   0.064644  -0.050281  -0.436537  -0.450950
   12  C  4  S    0.000237  -0.020311   0.034403  -0.041500  -0.000660
   13  C  4  S   -0.001172   0.088387  -0.202834   0.225484  -0.000393
   14  C  4  X   -0.001665  -0.031028   0.246965   0.277200  -0.218709
   15  C  4  Y   -0.002465   0.124478  -0.278059   0.260846  -0.300899
   16  C  4  Z    0.000823  -0.055357   0.074151  -0.300627  -0.512679
   17  C  5  S    0.000375   0.003108   0.033433   0.027568   0.010455
   18  C  5  S   -0.001601  -0.014764  -0.186550  -0.150173  -0.060469
   19  C  5  X    0.010210   0.037690   0.158772   0.360666  -0.174005
   20  C  5  Y    0.006868  -0.020977  -0.062263   0.158549  -0.228346
   21  C  5  Z    0.012121  -0.011197  -0.042275  -0.301486  -0.424691
   22  H  6  S   -0.014249   0.260363  -0.481327   0.537288  -0.137293
   23  O  7  S   -0.004279   0.074919  -0.115383   0.031882  -0.011120
   24  O  7  S    0.024511  -0.418022   0.781618  -0.205951   0.075649
   25  O  7  X   -0.043116   0.272924   0.391177  -0.106657  -0.049017
   26  O  7  Y   -0.057810   0.134223   0.157818  -0.375282   0.091298
   27  O  7  Z   -0.122351  -0.316999  -0.135283   0.203721  -0.041971
   28  H  8  S   -0.022656   0.052593  -0.761504   0.046051   0.036741
   29  H  9  S    0.220697  -0.107308   0.004873  -0.382400  -0.462216
   30  H 10  S   -0.217509  -0.103927  -0.126052  -0.424965   0.444172
   31  H 11  S    0.019866  -0.019323   0.059391   0.190077   0.619560
   32  H 12  S   -0.016042  -0.017970   0.165477   0.232517  -0.539259
   33  H 13  S   -0.007644  -0.004189   0.050613  -0.204619  -0.445360
   34  H 14  S    0.008547  -0.004243   0.022478  -0.228737   0.420697
   35  H 15  S    0.000500   0.027190   0.002037   0.306956   0.035740

                     26         27         28         29         30
                    0.6708     0.6984     0.7124     0.7367     0.7602
                     A          A          A          A          A   
    1  O  1  S    0.008718   0.027880   0.032440  -0.003084   0.014548
    2  O  1  S   -0.043573  -0.182060  -0.184295   0.007768  -0.084947
    3  O  1  X    0.000571  -0.219213  -0.357517   0.044075  -0.048176
    4  O  1  Y   -0.058120   0.043960   0.058605  -0.087425   0.037877
    5  O  1  Z    0.040670   0.113990   0.098149  -0.115294   0.039714
    6  H  2  S    0.034120   0.102543  -0.022821   0.064062   0.041654
    7  C  3  S   -0.062863  -0.093453  -0.114072   0.084964   0.006624
    8  C  3  S    0.387509   0.553662   0.692363  -0.539477  -0.063974
    9  C  3  X    0.175000  -0.093040   0.156664   0.111812  -0.199712
   10  C  3  Y   -0.368730   0.362687   0.549233   0.150036  -0.309346
   11  C  3  Z    0.121207  -0.210138   0.085674   0.665995   0.125290
   12  C  4  S   -0.017763  -0.108307   0.039587  -0.040668   0.048959
   13  C  4  S    0.123556   0.672849  -0.221162   0.235986  -0.288726
   14  C  4  X    0.128885   0.119548  -0.524731   0.361184  -0.115043
   15  C  4  Y   -0.537017  -0.106672   0.098488  -0.014521  -0.216544
   16  C  4  Z    0.164838   0.015937   0.124169  -0.150085   0.119208
   17  C  5  S    0.014601  -0.072995  -0.060123   0.007866  -0.164236
   18  C  5  S   -0.075857   0.479173   0.356763  -0.034507   1.047619
   19  C  5  X    0.137491   0.561341  -0.620220   0.085824   0.341944
   20  C  5  Y   -0.573570  -0.324045   0.032574  -0.391125   0.440245
   21  C  5  Z    0.154474  -0.076890  -0.237683  -0.663021  -0.275312
   22  H  6  S    0.676106  -0.429150   0.164349  -0.064549   0.236305
   23  O  7  S    0.038678  -0.008777  -0.017715   0.010199  -0.008246
   24  O  7  S   -0.268492   0.060659   0.125422  -0.071798   0.053601
   25  O  7  X    0.141261  -0.137725   0.229305  -0.056389   0.236018
   26  O  7  Y   -0.552803   0.395787  -0.170636   0.080757  -0.263588
   27  O  7  Z    0.159022  -0.120164   0.013551   0.006727   0.019362
   28  H  8  S   -0.116766   0.197738  -0.442836   0.159370  -0.360995
   29  H  9  S   -0.085570  -0.424903  -0.075148   0.830897   0.175456
   30  H 10  S   -0.071129  -0.389149  -0.602844  -0.148668   0.432939
   31  H 11  S   -0.172876  -0.297138   0.016368   0.009359   0.064327
   32  H 12  S   -0.273692  -0.264202  -0.160714   0.083002  -0.027320
   33  H 13  S    0.160435  -0.245104  -0.406642  -0.655535  -0.635042
   34  H 14  S    0.290824  -0.340960   0.331284   0.348526  -0.867658
   35  H 15  S   -0.585030  -0.553002   0.072486  -0.058368  -0.045231

                     31         32         33         34         35
                    0.7773     0.7940     0.8151     0.8361     1.0618
                     A          A          A          A          A   
    1  O  1  S    0.081154   0.011996   0.008239  -0.004633   0.056964
    2  O  1  S   -0.524056  -0.080343  -0.028709   0.018627  -0.440443
    3  O  1  X   -0.361977  -0.029484  -0.307711   0.080628   0.432539
    4  O  1  Y    0.004853  -0.019775   0.161069  -0.124872  -0.651095
    5  O  1  Z    0.227987   0.029444   0.079792  -0.118777   0.124124
    6  H  2  S    0.401093   0.098621  -0.281085   0.115811   1.285583
    7  C  3  S   -0.134871  -0.029770   0.068713  -0.009848   0.042359
    8  C  3  S    0.770314   0.187779  -0.465863   0.076443  -0.273357
    9  C  3  X   -0.386131  -0.011763  -0.452037   0.463812   0.156250
   10  C  3  Y   -0.047242  -0.094749   0.546420   0.116177   0.211148
   11  C  3  Z    0.230237   0.068935   0.036514   0.480847  -0.269748
   12  C  4  S    0.102787  -0.125471  -0.121416   0.029812  -0.036710
   13  C  4  S   -0.654129   0.802455   0.746718  -0.184303   0.246084
   14  C  4  X    0.633131  -0.024076  -0.018368  -0.447941  -0.070519
   15  C  4  Y   -0.227939  -0.546645   0.149856  -0.480327   0.174954
   16  C  4  Z   -0.302033   0.357824  -0.517863  -0.581357  -0.054042
   17  C  5  S    0.077581   0.121711   0.065045  -0.014217   0.002743
   18  C  5  S   -0.496156  -0.769029  -0.412653   0.090952  -0.015231
   19  C  5  X    0.164672   0.098835   0.301555   0.199998   0.008406
   20  C  5  Y    0.119253   0.524223  -0.087421   0.284386  -0.057707
   21  C  5  Z   -0.108560  -0.391856   0.220310   0.395821   0.030812
   22  H  6  S    0.003350  -0.005961   0.158526  -0.069530  -0.045259
   23  O  7  S    0.016954   0.007273  -0.045906   0.019873   0.031786
   24  O  7  S   -0.127523  -0.053419   0.327714  -0.140961  -0.238306
   25  O  7  X    0.132612   0.003903   0.267880  -0.110357   0.547352
   26  O  7  Y    0.009845   0.013428  -0.227185   0.106596   0.036829
   27  O  7  Z   -0.089091  -0.017288   0.042294  -0.007111  -0.316255
   28  H  8  S   -0.038297   0.054773  -0.714966   0.301353  -0.424898
   29  H  9  S   -0.213690  -0.035999   0.357308   0.306834  -0.011153
   30  H 10  S   -0.159289  -0.048671   0.390629  -0.519359   0.079319
   31  H 11  S    0.520329  -0.598930   0.087958   0.605538  -0.053790
   32  H 12  S    0.472788  -0.583448  -0.366651  -0.550363  -0.048338
   33  H 13  S    0.126075   0.044091   0.343264   0.296879   0.021280
   34  H 14  S    0.053129   0.061146  -0.023083  -0.358083   0.016426
   35  H 15  S    0.291569   0.843901  -0.003537   0.000149  -0.033164
 ...... END OF RHF CALCULATION ......
 STEP CPU TIME =     0.03 TOTAL CPU TIME =          0.1 (      0.0 MIN)
 TOTAL WALL CLOCK TIME=          0.1 SECONDS, CPU UTILIZATION IS    88.89%

     ----------------------------------------------------------------
     PROPERTY VALUES FOR THE RHF   SELF-CONSISTENT FIELD WAVEFUNCTION
     ----------------------------------------------------------------

          -----------------
          ENERGY COMPONENTS
          -----------------

         WAVEFUNCTION NORMALIZATION =       1.0000000000

                ONE ELECTRON ENERGY =    -785.0799717749
                TWO ELECTRON ENERGY =     308.1870435305
           NUCLEAR REPULSION ENERGY =     211.5375974752
                                      ------------------
                       TOTAL ENERGY =    -265.3553307692

 ELECTRON-ELECTRON POTENTIAL ENERGY =     308.1870435305
  NUCLEUS-ELECTRON POTENTIAL ENERGY =   -1050.3196814280
   NUCLEUS-NUCLEUS POTENTIAL ENERGY =     211.5375974752
                                      ------------------
             TOTAL POTENTIAL ENERGY =    -530.5950404223
               TOTAL KINETIC ENERGY =     265.2397096532
                 VIRIAL RATIO (V/T) =       2.0004359118

          ---------------------------------------
          MULLIKEN AND LOWDIN POPULATION ANALYSES
          ---------------------------------------

     ATOMIC MULLIKEN POPULATION IN EACH MOLECULAR ORBITAL

                      1          2          3          4          5

                  2.000000   2.000000   2.000000   2.000000   2.000000

    1             0.000002   2.001346  -0.000376  -0.000000   0.000000
    2            -0.000472  -0.000803  -0.000003  -0.000000  -0.000000
    3            -0.000003  -0.000560   2.003167   0.000003  -0.000780
    4            -0.000000   0.000002  -0.000734   0.001275   2.001476
    5            -0.000000  -0.000000   0.000002   2.001638   0.001275
    6            -0.000641   0.000000   0.000000  -0.000000  -0.000000
    7             2.001805   0.000001  -0.000008  -0.000000  -0.000000
    8            -0.000702   0.000008  -0.000142   0.000000  -0.000000
    9             0.000003   0.000003  -0.000963   0.000000   0.000001
   10             0.000008   0.000002  -0.000943   0.000000   0.000001
   11            -0.000000  -0.000000   0.000000   0.000002  -0.000982
   12            -0.000000  -0.000000   0.000000   0.000002  -0.000981
   13            -0.000000  -0.000000   0.000000  -0.000974  -0.000003
   14            -0.000000  -0.000000   0.000000  -0.000974  -0.000003
   15            -0.000000  -0.000000   0.000000  -0.000972  -0.000002

                      6          7          8          9         10

                  2.000000   2.000000   2.000000   2.000000   2.000000

    1             0.259536   1.070935   0.106840   0.116187   0.012021
    2             0.130352   0.071982   0.041240   0.098779   0.002596
    3             0.076622   0.271267   0.297229   0.470203   0.189332
    4             0.001353   0.034888   0.619183   0.097573   0.469872
    5             0.000034   0.003713   0.481489   0.381751   0.400897
    6             0.081863   0.086124   0.000759   0.013627   0.068599
    7             1.294949   0.408050   0.032082   0.199245   0.196978
    8             0.145362   0.024766   0.024654   0.150745   0.091754
    9             0.004711   0.010794   0.043481   0.116823   0.012222
   10             0.005140   0.011472   0.049619   0.145680   0.020917
   11             0.000038   0.002648   0.066696   0.004378   0.117147
   12             0.000038   0.002634   0.066170   0.004676   0.118991
   13             0.000001   0.000285   0.059635   0.061331   0.102827
   14             0.000001   0.000285   0.060036   0.061067   0.104423
   15             0.000000   0.000157   0.050888   0.077935   0.091422

                     11         12         13         14         15

                  2.000000   2.000000   2.000000   2.000000   2.000000

    1             0.277089   0.264541   0.081695   0.075042   0.026407
    2             0.062948   0.135555   0.002788   0.001399   0.000392
    3             0.119080   0.340679   0.542563   0.180499   0.118182
    4             0.190936   0.155252   0.319154   0.169173   0.113241
    5             0.077641   0.049324   0.145570   0.498184   0.796145
    6             0.361707  -0.000026   0.001294   0.002418   0.023765
    7             0.693745   0.654271   0.113695   0.314780   0.118595
    8             0.051867   0.132405  -0.000149   0.002344   0.014932
    9             0.003392   0.109984   0.216258   0.092847   0.030512
   10             0.001724   0.051499   0.254778   0.106555   0.039169
   11             0.057859   0.045039   0.096511   0.070301   0.005558
   12             0.055860   0.030458   0.112465   0.065976   0.006727
   13             0.022583   0.005436   0.054735   0.210401   0.081605
   14             0.021999   0.002632   0.058153   0.208981   0.096860
   15             0.001568   0.022952   0.000491   0.001100   0.527911

                     16         17         18         19         20

                  2.000000   2.000000   2.000000   2.000000   2.000000

    1             0.285809   0.022029   0.050239   0.053390   0.598857
    2             0.007447   0.000046   0.004800   0.003964   0.040381
    3             0.269736   0.071260   0.246826   0.254194   0.536003
    4             0.446931   0.184934   0.485194   0.433897   0.330405
    5             0.455461   0.273442   0.204786   0.164104   0.237242
    6             0.041842   0.000326   0.029449   0.015948   0.010014
    7             0.248395   1.014007   0.191463   0.369989   0.114115
    8             0.018303   0.000317   0.000612  -0.001996   0.034067
    9             0.053664   0.010695   0.168612   0.000981   0.000602
   10             0.004874   0.024288   0.001347   0.178906   0.000292
   11             0.034369   0.033485   0.401830   0.006067   0.000001
   12             0.005894   0.110342   0.010487   0.349426   0.000163
   13             0.108727   0.068122   0.172616   0.000983   0.000088
   14             0.007414   0.186374   0.002542   0.139709   0.000205
   15             0.011132   0.000332   0.029197   0.030438   0.097565

                     21         22

                  2.000000   2.000000

    1             1.800893   1.378642
    2            -0.000001   0.032079
    3             0.009218   0.024639
    4             0.000026   0.043464
    5             0.000610   0.004017
    6             0.000352   0.105548
    7             0.034226   0.373215
    8             0.000910   0.003871
    9             0.078453   0.017053
   10             0.074217   0.015181
   11             0.000563   0.000568
   12             0.000343   0.000494
   13             0.000081   0.000035
   14             0.000106   0.000035
   15             0.000000   0.001158

               ----- POPULATIONS IN EACH AO -----
                             MULLIKEN      LOWDIN
              1  O  1  S      1.99759     1.99576
              2  O  1  S      1.79561     1.67937
              3  O  1  X      1.27118     1.30686
              4  O  1  Y      1.59721     1.61195
              5  O  1  Z      1.81953     1.82528
              6  H  2  S      0.63547     0.73407
              7  C  3  S      1.99239     1.98512
              8  C  3  S      1.19393     1.05322
              9  C  3  X      0.90553     0.94088
             10  C  3  Y      0.96218     0.98948
             11  C  3  Z      0.96532     0.99329
             12  C  4  S      1.99202     1.98510
             13  C  4  S      1.17472     1.02355
             14  C  4  X      0.96058     0.99577
             15  C  4  Y      0.97171     1.00822
             16  C  4  Z      0.99848     1.02513
             17  C  5  S      1.99204     1.98538
             18  C  5  S      1.18363     1.01491
             19  C  5  X      0.98543     1.01960
             20  C  5  Y      1.01018     1.03587
             21  C  5  Z      1.00604     1.03283
             22  H  6  S      0.84297     0.89261
             23  O  7  S      1.99739     1.99556
             24  O  7  S      1.78413     1.62011
             25  O  7  X      1.45685     1.47042
             26  O  7  Y      1.28779     1.29687
             27  O  7  Z      1.84744     1.84616
             28  H  8  S      0.69393     0.75855
             29  H  9  S      0.97013     0.99893
             30  H 10  S      0.98473     1.00487
             31  H 11  S      0.94208     0.97370
             32  H 12  S      0.94017     0.97202
             33  H 13  S      0.94851     0.97724
             34  H 14  S      0.94984     0.97828
             35  H 15  S      0.94327     0.97304

          ----- MULLIKEN ATOMIC OVERLAP POPULATIONS -----
          (OFF-DIAGONAL ELEMENTS NEED TO BE MULTIPLIED BY 2)

             1           2           3           4           5

    1    8.1780849
    2    0.2651332   0.3945296
    3    0.2899662  -0.0459012   4.8305947
    4   -0.0180455   0.0015443   0.3554537   4.7426061
    5    0.0002487  -0.0000357  -0.0242563   0.3601448   4.7375025
    6    0.0098266  -0.0023359   0.0043810  -0.0000351   0.0000001
    7   -0.2048420   0.0342830  -0.0492637   0.0005160   0.0000022
    8   -0.0008064  -0.0127925  -0.0416200   0.0014279  -0.0000765
    9   -0.0184015   0.0001524   0.3782810  -0.0255413  -0.0021904
   10   -0.0189882   0.0007928   0.3687928  -0.0257092  -0.0021345
   11   -0.0005163   0.0000460  -0.0217315   0.3846650  -0.0224206
   12   -0.0005386   0.0000539  -0.0213788   0.3847310  -0.0222424
   13    0.0000042  -0.0000009  -0.0026551  -0.0217535   0.3842637
   14    0.0000044  -0.0000009  -0.0026717  -0.0218012   0.3841562
   15   -0.0000045   0.0000007   0.0013691  -0.0207071   0.3843631

             6           7           8           9          10

    6    0.6438669
    7    0.2189590   8.1016253
    8   -0.0331076   0.3035870   0.4974423
    9    0.0005893  -0.0123674  -0.0134823   0.6956547
   10    0.0008224  -0.0188637  -0.0067331  -0.0322652   0.7193986
   11    0.0000014  -0.0000151   0.0000354   0.0018837  -0.0025784
   12    0.0000009  -0.0000204   0.0000624  -0.0025205   0.0018679
   13    0.0000001  -0.0000009  -0.0000034   0.0003126   0.0000140
   14    0.0000001  -0.0000009  -0.0000066   0.0000151   0.0003034
   15   -0.0000000   0.0000000   0.0000014   0.0000077   0.0000059

            11          12          13          14          15

   11    0.6270155
   12   -0.0216653   0.6244677
   13    0.0019324  -0.0023656   0.6314808
   14   -0.0023607   0.0019304  -0.0216601   0.6330271
   15   -0.0022117  -0.0022176  -0.0210558  -0.0210900   0.6248124

          TOTAL MULLIKEN AND LOWDIN ATOMIC POPULATIONS
       ATOM         MULL.POP.    CHARGE          LOW.POP.     CHARGE
    1 O             8.481125   -0.481125         8.419223   -0.419223
    2 H             0.635469    0.364531         0.734073    0.265927
    3 C             6.019360   -0.019360         5.961995    0.038005
    4 C             6.097496   -0.097496         6.037760   -0.037760
    5 C             6.177325   -0.177325         6.088594   -0.088594
    6 H             0.842969    0.157031         0.892609    0.107391
    7 O             8.373598   -0.373598         8.229114   -0.229114
    8 H             0.693928    0.306072         0.758552    0.241448
    9 H             0.970128    0.029872         0.998931    0.001069
   10 H             0.984725    0.015275         1.004873   -0.004873
   11 H             0.942080    0.057920         0.973697    0.026303
   12 H             0.940165    0.059835         0.972015    0.027985
   13 H             0.948513    0.051487         0.977245    0.022755
   14 H             0.949844    0.050156         0.978280    0.021720
   15 H             0.943274    0.056726         0.973040    0.026960

          -------------------------------
          BOND ORDER AND VALENCE ANALYSIS     BOND ORDER THRESHOLD=0.050
          -------------------------------

                   BOND                       BOND                       BOND
  ATOM PAIR DIST  ORDER      ATOM PAIR DIST  ORDER      ATOM PAIR DIST  ORDER
    1   2  0.967  0.603        1   3  1.429  1.001        1   7  1.682  0.077
    2   7  1.053  0.217        3   4  1.530  0.975        3   9  1.090  0.943
    3  10  1.090  0.920        4   5  1.530  1.001        4  11  1.090  0.976
    4  12  1.090  0.975        5  13  1.090  0.983        5  14  1.090  0.983
    5  15  1.090  0.984        6   7  0.967  0.930        7   8  0.967  0.809

                       TOTAL       BONDED        FREE
      ATOM            VALENCE     VALENCE     VALENCE
    1 O                 1.794       1.794       0.000
    2 H                 0.867       0.867      -0.000
    3 C                 3.957       3.957       0.000
    4 C                 3.966       3.966      -0.000
    5 C                 3.968       3.968       0.000
    6 H                 0.975       0.975       0.000
    7 O                 2.089       2.089       0.000
    8 H                 0.906       0.906      -0.000
    9 H                 0.999       0.999       0.000
   10 H                 1.000       1.000       0.000
   11 H                 0.997       0.997       0.000
   12 H                 0.996       0.996       0.000
   13 H                 0.997       0.997       0.000
   14 H                 0.997       0.997       0.000
   15 H                 0.997       0.997      -0.000

          ---------------------
          ELECTROSTATIC MOMENTS
          ---------------------

 POINT   1           X           Y           Z (BOHR)    CHARGE
                -5.619141    0.945810   -0.361306        0.00 (A.U.)
         DX          DY          DZ         /D/  (DEBYE)
     1.718738    2.496832   -1.944121    3.601089
 ...... END OF PROPERTY EVALUATION ......
 STEP CPU TIME =     0.00 TOTAL CPU TIME =          0.1 (      0.0 MIN)
 TOTAL WALL CLOCK TIME=          0.1 SECONDS, CPU UTILIZATION IS    88.89%

 BEGINNING ONE ELECTRON GRADIENT...
 ..... END OF 1-ELECTRON GRADIENT ......
 STEP CPU TIME =     0.01 TOTAL CPU TIME =          0.1 (      0.0 MIN)
 TOTAL WALL CLOCK TIME=          0.1 SECONDS, CPU UTILIZATION IS    90.00%

          ----------------------
          GRADIENT OF THE ENERGY
          ----------------------
 THE COARSE/FINE SCHWARZ SCREENINGS SKIPPED         2857/        2149 BLOCKS.
 THE NUMBER OF GRADIENT INTEGRAL BLOCKS COMPUTED WAS     17109
 ...... END OF 2-ELECTRON GRADIENT ......
 STEP CPU TIME =     0.07 TOTAL CPU TIME =          0.2 (      0.0 MIN)
 TOTAL WALL CLOCK TIME=          0.2 SECONDS, CPU UTILIZATION IS    94.12%

          NSERCH=  0     ENERGY=    -265.3553308

                                 -----------------------
                                 GRADIENT (HARTREE/BOHR)
                                 -----------------------
        ATOM     ZNUC       DE/DX         DE/DY         DE/DZ
 --------------------------------------------------------------
    1  O            8.0     0.0810027     0.3141514    -0.2440735
    2  H            1.0     0.0306143     0.0563561    -0.0559587
    3  C            6.0     0.0520110     0.0611037    -0.0523541
    4  C            6.0    -0.0059396     0.0066599    -0.0016245
    5  C            6.0    -0.0029768     0.0070377    -0.0023682
    6  H            1.0    -0.0261231    -0.0344772     0.0341636
    7  O            8.0    -0.0956479    -0.3690842     0.2970247
    8  H            1.0     0.0157477    -0.0754392     0.0247575
    9  H            1.0    -0.0140145     0.0184972     0.0081619
   10  H            1.0    -0.0293566     0.0136031    -0.0101096
   11  H            1.0     0.0041197     0.0012735     0.0025869
   12  H            1.0    -0.0000145    -0.0033129    -0.0038780
   13  H            1.0    -0.0046807     0.0013526    -0.0039210
   14  H            1.0    -0.0004223     0.0055595     0.0029755
   15  H            1.0    -0.0043194    -0.0032812     0.0046176

          MAXIMUM GRADIENT = 0.3690842    RMS GRADIENT = 0.0973557

 NSERCH:   0  E=     -265.3553307692  GRAD. MAX=  0.3690842  R.M.S.=  0.0973557

          FORCE CONSTANT MATRIX NOT UPDATED --- TAKING FIRST STEP
          MIN SEARCH, CORRECT HESSIAN, TRYING PURE NR STEP
               NR STEP HAS LENGTH         =   2.250815
          TRIM/QA LAMBDA FOR NON-TS MODES =  -1.47273200
          TRIM/QA STEP HAS LENGTH         =   0.300000
          RADIUS OF STEP TAKEN=   0.30000  CURRENT TRUST RADIUS=   0.30000

 BEGINNING GEOMETRY SEARCH POINT NSERCH=   1 ...

 COORDINATES OF ALL ATOMS ARE (ANGS)
   ATOM   CHARGE       X              Y              Z
 ------------------------------------------------------------
 O           8.0  -4.1790470827   0.9991952454   0.2645611330
 H           1.0  -4.4045616127   1.9137877759  -0.1446388646
 C           6.0  -2.9216110343   0.5812816324  -0.2747895393
 C           6.0  -2.6008696218  -0.7751821406   0.3434061842
 C           6.0  -1.2623555350  -1.2931344655  -0.1808836866
 H           1.0  -3.7734255911   3.2579725317  -1.1568908310
 O           8.0  -3.6917708301   2.3957114908  -0.9173162581
 H           1.0  -2.8342583217   1.9531156990  -0.9585024495
 H           1.0  -2.9490257478   0.4829270163  -1.3703210614
 H           1.0  -2.1090220520   1.2883559195  -0.0238971663
 H           1.0  -2.5555541856  -0.6683776182   1.4261212309
 H           1.0  -3.3938659608  -1.4746612038   0.0816132582
 H           1.0  -1.3109172736  -1.3953610079  -1.2642070767
 H           1.0  -0.4729285598  -0.5892533798   0.0796707305
 H           1.0  -1.0478865909  -2.2607774951   0.2658443966

          INTERNUCLEAR DISTANCES (ANGS.)
          ------------------------------

                1 O          2 H          3 C          4 C          5 C     

   1 O       0.0000000    1.0270253 *  1.4306280 *  2.3759789 *  3.7363466  
   2 H       1.0270253 *  0.0000000    1.9979125 *  3.2744545    4.4898912  
   3 C       1.4306280 *  1.9979125 *  0.0000000    1.5248065 *  2.5050714 *
   4 C       2.3759789 *  3.2744545    1.5248065 *  0.0000000    1.5279969 *
   5 C       3.7363466    4.4898912    2.5050714 *  1.5279969 *  0.0000000  
   6 H       2.6994683 *  1.7971698 *  2.9442087 *  4.4600578    5.2887274  
   7 O       1.8932855 *  1.1564392 *  2.0731962 *  3.5824646    4.4779433  
   8 H       2.0528774 *  1.7691165 *  1.5352598 *  3.0320035    3.6896761  
   9 H       2.1100534 *  2.3808074 *  1.1002793 *  2.1542777 *  2.7228684 *
  10 H       2.1099350 *  2.3822774 *  1.1059846 *  2.1529085 *  2.7213198 *
  11 H       2.6011056 *  3.5431192    2.1421352 *  1.0889135 *  2.1552607 *
  12 H       2.6019118 *  3.5432023    2.1393804 *  1.0893345 *  2.1552710 *
  13 H       4.0369791    4.6663191    2.7350316 *  2.1524450 *  1.0892190 *
  14 H       4.0364177    4.6661835    2.7371226 *  2.1522684 *  1.0892806 *
  15 H       4.5201316    5.3724072    3.4467997    2.1505268 *  1.0871504 *

                6 H          7 O          8 H          9 H         10 H     

   1 O       2.6994683 *  1.8932855 *  2.0528774 *  2.1100534 *  2.1099350 *
   2 H       1.7971698 *  1.1564392 *  1.7691165 *  2.3808074 *  2.3822774 *
   3 C       2.9442087 *  2.0731962 *  1.5352598 *  1.1002793 *  1.1059846 *
   4 C       4.4600578    3.5824646    3.0320035    2.1542777 *  2.1529085 *
   5 C       5.2887274    4.4779433    3.6896761    2.7228684 *  2.7213198 *
   6 H       0.0000000    0.8986421 *  1.6198903 *  2.9027685 *  2.8166120 *
   7 O       0.8986421 *  0.0000000    0.9658753 *  2.1013396 *  2.1282687 *
   8 H       1.6198903 *  0.9658753 *  0.0000000    1.5310849 *  1.3569673 *
   9 H       2.9027685 *  2.1013396 *  1.5310849 *  0.0000000    1.7796571 *
  10 H       2.8166120 *  2.1282687 *  1.3569673 *  1.7796571 *  0.0000000  
  11 H       4.8550373    4.0213592    3.5547621    3.0496576    2.4760352 *
  12 H       4.9067077    4.0082904    3.6255559    2.4775286 *  3.0489703  
  13 H       5.2658311    4.4901033    3.6913845    2.4945191 *  3.0622992  
  14 H       5.2176156    4.5016601    3.6217844    3.0631853    2.4925780 *
  15 H       6.3173840    5.4838748    4.7378313    3.7174295    3.7156839  

               11 H         12 H         13 H         14 H         15 H     

   1 O       2.6011056 *  2.6019118 *  4.0369791    4.0364177    4.5201316  
   2 H       3.5431192    3.5432023    4.6663191    4.6661835    5.3724072  
   3 C       2.1421352 *  2.1393804 *  2.7350316 *  2.7371226 *  3.4467997  
   4 C       1.0889135 *  1.0893345 *  2.1524450 *  2.1522684 *  2.1505268 *
   5 C       2.1552607 *  2.1552710 *  1.0892190 *  1.0892806 *  1.0871504 *
   6 H       4.8550373    4.9067077    5.2658311    5.2176156    6.3173840  
   7 O       4.0213592    4.0082904    4.4901033    4.5016601    5.4838748  
   8 H       3.5547621    3.6255559    3.6913845    3.6217844    4.7378313  
   9 H       3.0496576    2.4775286 *  2.4945191 *  3.0631853    3.7174295  
  10 H       2.4760352 *  3.0489703    3.0622992    2.4925780 *  3.7156839  
  11 H       0.0000000    1.7777968 *  3.0521291    2.4812334 *  2.4809356 *
  12 H       1.7777968 *  0.0000000    2.4811683 *  3.0521838    2.4810359 *
  13 H       3.0521291    2.4811683 *  0.0000000    1.7770881 *  1.7774106 *
  14 H       2.4812334 *  3.0521838    1.7770881 *  0.0000000    1.7774224 *
  15 H       2.4809356 *  2.4810359 *  1.7774106 *  1.7774224 *  0.0000000  

  * ... LESS THAN  3.000

 ...... END OF ONE-ELECTRON INTEGRALS ......
 STEP CPU TIME =     0.00 TOTAL CPU TIME =          0.2 (      0.0 MIN)
 TOTAL WALL CLOCK TIME=          0.2 SECONDS, CPU UTILIZATION IS    94.12%
 TOTAL NUMBER OF NONZERO TWO-ELECTRON INTEGRALS =              178736
         12 INTEGRAL RECORDS WERE STORED ON DISK FILE  8.
  ...... END OF TWO-ELECTRON INTEGRALS .....
 STEP CPU TIME =     0.04 TOTAL CPU TIME =          0.2 (      0.0 MIN)
 TOTAL WALL CLOCK TIME=          0.2 SECONDS, CPU UTILIZATION IS    95.24%

          --------------------------
                 RHF SCF CALCULATION
          --------------------------
     DENSITY MATRIX CONV=  2.00E-04

 ITER EX DEM     TOTAL ENERGY        E CHANGE  DENSITY CHANGE     ORB. GRAD
          ---------------START SECOND ORDER SCF---------------
   1  0  0     -265.4771003729  -265.4771003729   0.074968609   0.023443633
   2  1  0     -265.4861738026    -0.0090734297   0.028896295   0.005532694
   3  2  0     -265.4869685392    -0.0007947366   0.002603362   0.000782183
   4  3  0     -265.4869915105    -0.0000229713   0.000702640   0.000330337
   5  4  0     -265.4869932687    -0.0000017581   0.000138056   0.000049770
   6  5  0     -265.4869933284    -0.0000000597   0.000062074   0.000021764
   7  6  0     -265.4869933367    -0.0000000083   0.000011744   0.000004680

          -----------------
          DENSITY CONVERGED
          -----------------
     TIME TO FORM FOCK OPERATORS=       0.0 SECONDS (       0.0 SEC/ITER)
     TIME TO SOLVE SCF EQUATIONS=       0.0 SECONDS (       0.0 SEC/ITER)

 FINAL RHF ENERGY IS     -265.4869933367 AFTER   7 ITERATIONS
 ...... END OF RHF CALCULATION ......
 STEP CPU TIME =     0.01 TOTAL CPU TIME =          0.2 (      0.0 MIN)
 TOTAL WALL CLOCK TIME=          0.2 SECONDS, CPU UTILIZATION IS    95.45%
 ..... END OF 1-ELECTRON GRADIENT ......
 STEP CPU TIME =     0.01 TOTAL CPU TIME =          0.2 (      0.0 MIN)
 TOTAL WALL CLOCK TIME=          0.2 SECONDS, CPU UTILIZATION IS    95.65%
 ...... END OF 2-ELECTRON GRADIENT ......
 STEP CPU TIME =     0.06 TOTAL CPU TIME =          0.3 (      0.0 MIN)
 TOTAL WALL CLOCK TIME=          0.3 SECONDS, CPU UTILIZATION IS    93.33%

          NSERCH=  1     ENERGY=    -265.4869933

                                 -----------------------
                                 GRADIENT (HARTREE/BOHR)
                                 -----------------------
        ATOM     ZNUC       DE/DX         DE/DY         DE/DZ
 --------------------------------------------------------------
    1  O            8.0     0.0482257     0.1056928    -0.0989128
    2  H            1.0    -0.0112836     0.0789200    -0.0391484
    3  C            6.0     0.0294507     0.0500163    -0.0399535
    4  C            6.0    -0.0064174     0.0089261    -0.0012108
    5  C            6.0    -0.0031165     0.0053848    -0.0013735
    6  H            1.0    -0.0189971    -0.1258011     0.0496415
    7  O            8.0    -0.0210931    -0.0846927     0.1150446
    8  H            1.0     0.0104408    -0.0769682     0.0264315
    9  H            1.0    -0.0064501     0.0148964    -0.0017538
   10  H            1.0    -0.0136337     0.0174610    -0.0090788
   11  H            1.0     0.0034247     0.0021214     0.0015851
   12  H            1.0    -0.0003974    -0.0016439    -0.0041694
   13  H            1.0    -0.0044021     0.0015612    -0.0033051
   14  H            1.0    -0.0008286     0.0051447     0.0025653
   15  H            1.0    -0.0049223    -0.0010189     0.0036380

          MAXIMUM GRADIENT = 0.1258011    RMS GRADIENT = 0.0430804

 NSERCH:   1  E=     -265.4869933367  GRAD. MAX=  0.1258011  R.M.S.=  0.0430804

          HESSIAN UPDATED USING THE BFGS FORMULA
             ACTUAL ENERGY CHANGE WAS  -0.1316625675
          PREDICTED ENERGY CHANGE WAS  -0.1625911896 RATIO=  0.810
          MIN SEARCH, CORRECT HESSIAN, TRYING PURE NR STEP
               NR STEP HAS LENGTH         =   7.760314
          TRIM/QA LAMBDA FOR NON-TS MODES =  -0.30600838
          TRIM/QA STEP HAS LENGTH         =   0.424264
          RADIUS OF STEP TAKEN=   0.42426  CURRENT TRUST RADIUS=   0.42426

 BEGINNING GEOMETRY SEARCH POINT NSERCH=   2 ...

 COORDINATES OF ALL ATOMS ARE (ANGS)
   ATOM   CHARGE       X              Y              Z
 ------------------------------------------------------------
 O           8.0  -4.2050111256   0.9457269942   0.3230741973
 H           1.0  -4.3716917361   1.8399700331  -0.1243726564
 C           6.0  -2.9481862451   0.5589465410  -0.2479160085
 C           6.0  -2.5927946733  -0.7916338586   0.3479343864
 C           6.0  -1.2571298276  -1.3002539943  -0.1797239959
 H           1.0  -3.7395772655   3.3870473952  -1.1968424824
 O           8.0  -3.7235417291   2.4242749178  -0.9959569157
 H           1.0  -2.8465031112   2.0244907147  -0.9743907068
 H           1.0  -2.9443895105   0.4719699321  -1.3546583184
 H           1.0  -2.1120983614   1.2663897549  -0.0215059732
 H           1.0  -2.5591201453  -0.6745240331   1.4281105318
 H           1.0  -3.3945196967  -1.4781258169   0.0885206957
 H           1.0  -1.3043835701  -1.3984865116  -1.2614572354
 H           1.0  -0.4697581645  -0.5957556145   0.0766347242
 H           1.0  -1.0383948381  -2.2644364539   0.2623197571

          INTERNUCLEAR DISTANCES (ANGS.)
          ------------------------------

                1 O          2 H          3 C          4 C          5 C     

   1 O       0.0000000    1.0137365 *  1.4336100 *  2.3702917 *  3.7399520  
   2 H       1.0137365 *  0.0000000    1.9190237 *  3.2113685    4.4231851  
   3 C       1.4336100 *  1.9190237 *  0.0000000    1.5183571 *  2.5141497 *
   4 C       2.3702917 *  3.2113685    1.5183571 *  0.0000000    1.5235217 *
   5 C       3.7399520    4.4231851    2.5141497 *  1.5235217 *  0.0000000  
   6 H       2.9132148 *  1.9857514 *  3.0862462    4.6003068    5.4007286  
   7 O       2.0390586 *  1.2333571 *  2.1541103 *  3.6642464    4.5410945  
   8 H       2.1662618 *  1.7557844 *  1.6388791 *  3.1214531    3.7698183  
   9 H       2.1513714 *  2.3285658 *  1.1101612 *  2.1492174 *  2.7144232 *
  10 H       2.1451909 *  2.3335248 *  1.1183829 *  2.1454641 *  2.7099196 *
  11 H       2.5603273 *  3.4667420    2.1170468 *  1.0870277 *  2.1614460 *
  12 H       2.5665101 *  3.4655373    2.1123605 *  1.0868899 *  2.1614877 *
  13 H       4.0521250    4.6031447    2.7497086 *  2.1490497 *  1.0872117 *
  14 H       4.0483349    4.6041556    2.7534117 *  2.1492454 *  1.0871945 *
  15 H       4.5095786    5.3015613    3.4466121    2.1430437 *  1.0830030 *

                6 H          7 O          8 H          9 H         10 H     

   1 O       2.9132148 *  2.0390586 *  2.1662618 *  2.1513714 *  2.1451909 *
   2 H       1.9857514 *  1.2333571 *  1.7557844 *  2.3285658 *  2.3335248 *
   3 C       3.0862462    2.1541103 *  1.6388791 *  1.1101612 *  1.1183829 *
   4 C       4.6003068    3.6642464    3.1214531    2.1492174 *  2.1454641 *
   5 C       5.4007286    4.5410945    3.7698183    2.7144232 *  2.7099196 *
   6 H       0.0000000    0.9836376 *  1.6442709 *  3.0257075    2.9201528 *
   7 O       0.9836376 *  0.0000000    0.9641002 *  2.1324258 *  2.2106566 *
   8 H       1.6442709 *  0.9641002 *  0.0000000    1.6014075 *  1.4219904 *
   9 H       3.0257075    2.1324258 *  1.6014075 *  0.0000000    1.7609959 *
  10 H       2.9201528 *  2.2106566 *  1.4219904 *  1.7609959 *  0.0000000  
  11 H       4.9779735    4.1029910    3.6248147    3.0342517    2.4634047 *
  12 H       5.0439205    4.0636288    3.7011384    2.4674392 *  3.0313489  
  13 H       5.3698862    4.5317018    3.7652773    2.4893600 *  3.0481876  
  14 H       5.3081241    4.5670718    3.6904284    3.0516287    2.4848538 *
  15 H       6.4315481    5.5477282    4.8159739    3.7061238    3.7013687  

               11 H         12 H         13 H         14 H         15 H     

   1 O       2.5603273 *  2.5665101 *  4.0521250    4.0483349    4.5095786  
   2 H       3.4667420    3.4655373    4.6031447    4.6041556    5.3015613  
   3 C       2.1170468 *  2.1123605 *  2.7497086 *  2.7534117 *  3.4466121  
   4 C       1.0870277 *  1.0868899 *  2.1490497 *  2.1492454 *  2.1430437 *
   5 C       2.1614460 *  2.1614877 *  1.0872117 *  1.0871945 *  1.0830030 *
   6 H       4.9779735    5.0439205    5.3698862    5.3081241    6.4315481  
   7 O       4.1029910    4.0636288    4.5317018    4.5670718    5.5477282  
   8 H       3.6248147    3.7011384    3.7652773    3.6904284    4.8159739  
   9 H       3.0342517    2.4674392 *  2.4893600 *  3.0516287    3.7061238  
  10 H       2.4634047 *  3.0313489    3.0481876    2.4848538 *  3.7013687  
  11 H       0.0000000    1.7714878 *  3.0548748    2.4896033 *  2.4898785 *
  12 H       1.7714878 *  0.0000000    2.4894682 *  3.0549875    2.4899427 *
  13 H       3.0548748    2.4894682 *  0.0000000    1.7695950 *  1.7727142 *
  14 H       2.4896033 *  3.0549875    1.7695950 *  0.0000000    1.7726597 *
  15 H       2.4898785 *  2.4899427 *  1.7727142 *  1.7726597 *  0.0000000  

  * ... LESS THAN  3.000

 ...... END OF ONE-ELECTRON INTEGRALS ......
 STEP CPU TIME =     0.01 TOTAL CPU TIME =          0.3 (      0.0 MIN)
 TOTAL WALL CLOCK TIME=          0.3 SECONDS, CPU UTILIZATION IS    96.67%
 TOTAL NUMBER OF NONZERO TWO-ELECTRON INTEGRALS =              177585
         12 INTEGRAL RECORDS WERE STORED ON DISK FILE  8.
  ...... END OF TWO-ELECTRON INTEGRALS .....
 STEP CPU TIME =     0.03 TOTAL CPU TIME =          0.3 (      0.0 MIN)
 TOTAL WALL CLOCK TIME=          0.3 SECONDS, CPU UTILIZATION IS    94.12%

          --------------------------
                 RHF SCF CALCULATION
          --------------------------
     DENSITY MATRIX CONV=  2.00E-04

 ITER EX DEM     TOTAL ENERGY        E CHANGE  DENSITY CHANGE     ORB. GRAD
          ---------------START SECOND ORDER SCF---------------
   1  0  0     -265.5624751058  -265.5624751058   0.035420417   0.017832452
   2  1  0     -265.5673436659    -0.0048685600   0.027489049   0.007756091
   3  2  0     -265.5682469616    -0.0009032957   0.004403658   0.000853801
   4  3  0     -265.5682717353    -0.0000247737   0.002204894   0.000388691
   5  4  0     -265.5682755015    -0.0000037661   0.000224282   0.000072381
   6  5  0     -265.5682756069    -0.0000001054   0.000142123   0.000020624
   7  6  0     -265.5682756260    -0.0000000191   0.000018555   0.000004363

          -----------------
          DENSITY CONVERGED
          -----------------
     TIME TO FORM FOCK OPERATORS=       0.0 SECONDS (       0.0 SEC/ITER)
     TIME TO SOLVE SCF EQUATIONS=       0.0 SECONDS (       0.0 SEC/ITER)

 FINAL RHF ENERGY IS     -265.5682756260 AFTER   7 ITERATIONS
 ...... END OF RHF CALCULATION ......
 STEP CPU TIME =     0.02 TOTAL CPU TIME =          0.3 (      0.0 MIN)
 TOTAL WALL CLOCK TIME=          0.4 SECONDS, CPU UTILIZATION IS    97.14%
 ..... END OF 1-ELECTRON GRADIENT ......
 STEP CPU TIME =     0.01 TOTAL CPU TIME =          0.4 (      0.0 MIN)
 TOTAL WALL CLOCK TIME=          0.4 SECONDS, CPU UTILIZATION IS    97.22%
 ...... END OF 2-ELECTRON GRADIENT ......
 STEP CPU TIME =     0.07 TOTAL CPU TIME =          0.4 (      0.0 MIN)
 TOTAL WALL CLOCK TIME=          0.4 SECONDS, CPU UTILIZATION IS    97.67%

          NSERCH=  2     ENERGY=    -265.5682756

                                 -----------------------
                                 GRADIENT (HARTREE/BOHR)
                                 -----------------------
        ATOM     ZNUC       DE/DX         DE/DY         DE/DZ
 --------------------------------------------------------------
    1  O            8.0     0.0104545     0.0451760    -0.0403251
    2  H            1.0     0.0033913     0.0475652    -0.0307341
[...]
                     A          A          A          A          A   
    1  O  1  S    0.020781   0.000039   0.028674   0.000556   0.068941
    2  O  1  S   -0.124927  -0.000262  -0.172099  -0.003689  -0.457786
    3  O  1  X   -0.201422  -0.001228  -0.296605  -0.078444  -0.003649
    4  O  1  Y    0.067292  -0.001329   0.177058  -0.063283  -0.414275
    5  O  1  Z    0.146715  -0.000882   0.158110  -0.078123   0.312487
    6  H  2  S   -0.042762   0.000506  -0.080571   0.006625   0.778592
    7  C  3  S    0.042035   0.000244  -0.115303   0.000151   0.030111
    8  C  3  S   -0.252587  -0.001443   0.685273  -0.001100  -0.209757
    9  C  3  X   -0.235098  -0.000408  -0.072788   0.489648  -0.239136
   10  C  3  Y    0.747445   0.001067   0.430597   0.370754  -0.077994
   11  C  3  Z   -0.323294  -0.000485  -0.245984   0.505541   0.280809
   12  C  4  S   -0.035720   0.000006  -0.129003   0.000254  -0.009641
   13  C  4  S    0.195663  -0.000093   0.793348  -0.001703   0.043609
   14  C  4  X   -0.116950   0.000075   0.194109  -0.009990   0.525467
   15  C  4  Y    0.670566   0.001662  -0.207183  -0.013051  -0.346796
   16  C  4  Z   -0.381959  -0.000593  -0.036883  -0.016553  -0.256497
   17  C  5  S   -0.032101  -0.000045  -0.023343   0.000464   0.039971
   18  C  5  S    0.186163   0.000243   0.176691  -0.002817  -0.230640
   19  C  5  X   -0.015098   0.000070   0.469825  -0.466954   0.474988
   20  C  5  Y    0.445929   0.001475  -0.580913  -0.356002  -0.086883
   21  C  5  Z   -0.315213  -0.000605  -0.030379  -0.485004  -0.389072
   22  H  6  S    0.002594  -0.820909   0.015678  -0.002110  -0.141890
   23  O  7  S   -0.000555  -0.000031   0.000459   0.000009  -0.000921
   24  O  7  S    0.003413   0.000218  -0.005445   0.000162   0.032422
   25  O  7  X    0.000497  -0.616176   0.010711  -0.000452  -0.095636
   26  O  7  Y   -0.003531  -0.436546  -0.024412   0.002131   0.227958
   27  O  7  Z    0.005208  -0.587825   0.005532  -0.000236  -0.068110
   28  H  8  S   -0.000811   0.820359   0.017161  -0.000092  -0.142759
   29  H  9  S   -0.066937   0.000220  -0.446199   0.616520   0.232348
   30  H 10  S   -0.066280   0.000529  -0.447076  -0.613609   0.242157
   31  H 11  S    0.136077   0.000193  -0.295028   0.019662   0.192411
   32  H 12  S    0.135221   0.000934  -0.295992  -0.014720   0.191314
   33  H 13  S   -0.298493  -0.000357  -0.133647  -0.609855  -0.206582
   34  H 14  S   -0.297603  -0.000988  -0.131663   0.608335  -0.215605
   35  H 15  S    0.510310   0.001535  -0.547399   0.002378   0.203173

                     31         32
                    0.7638     0.7712
                     A          A   
    1  O  1  S   -0.035186   0.022903
    2  O  1  S    0.219085  -0.144475
    3  O  1  X    0.140534  -0.159246
    4  O  1  Y    0.002310   0.059676
    5  O  1  Z   -0.139095   0.111439
    6  H  2  S   -0.196156   0.024247
    7  C  3  S    0.200581  -0.030448
    8  C  3  S   -1.232313   0.172152
    9  C  3  X   -0.245600  -0.154311
   10  C  3  Y    0.179808   0.280008
   11  C  3  Z    0.107022  -0.057641
   12  C  4  S   -0.157957  -0.016418
   13  C  4  S    0.963542   0.074697
   14  C  4  X   -0.014872   0.331310
   15  C  4  Y    0.239141   0.025040
   16  C  4  Z   -0.160483  -0.341081
   17  C  5  S    0.026939   0.209583
   18  C  5  S   -0.155169  -1.343441
   19  C  5  X    0.144928  -0.262876
   20  C  5  Y   -0.392984  -0.119632
   21  C  5  Z    0.146621   0.345119
   22  H  6  S    0.025401  -0.005783
   23  O  7  S   -0.000897  -0.000084
   24  O  7  S    0.000496   0.001744
   25  O  7  X    0.015255  -0.004022
   26  O  7  Y   -0.046539   0.008895
   27  O  7  Z    0.018629  -0.002598
   28  H  8  S    0.025080  -0.005563
   29  H  9  S    0.639454  -0.137758
   30  H 10  S    0.638894  -0.136480
   31  H 11  S   -0.348156   0.169717
   32  H 12  S   -0.346815   0.169524
   33  H 13  S    0.111206   0.788835
   34  H 14  S    0.113350   0.787839
   35  H 15  S   -0.283119   0.311883

     ----------------------------------------------------------------
     PROPERTY VALUES FOR THE RHF   SELF-CONSISTENT FIELD WAVEFUNCTION
     ----------------------------------------------------------------

          -----------------
          ENERGY COMPONENTS
          -----------------

         WAVEFUNCTION NORMALIZATION =       1.0000000000

                ONE ELECTRON ENERGY =    -731.6464043458
                TWO ELECTRON ENERGY =     281.2946501206
           NUCLEAR REPULSION ENERGY =     184.6632514650
                                      ------------------
                       TOTAL ENERGY =    -265.6885027602

 ELECTRON-ELECTRON POTENTIAL ENERGY =     281.2946501206
  NUCLEUS-ELECTRON POTENTIAL ENERGY =    -995.2897830564
   NUCLEUS-NUCLEUS POTENTIAL ENERGY =     184.6632514650
                                      ------------------
             TOTAL POTENTIAL ENERGY =    -529.3318814708
               TOTAL KINETIC ENERGY =     263.6433787106
                 VIRIAL RATIO (V/T) =       2.0077571607

          ---------------------------------------
          MULLIKEN AND LOWDIN POPULATION ANALYSES
          ---------------------------------------

     ATOMIC MULLIKEN POPULATION IN EACH MOLECULAR ORBITAL

                      1          2          3          4          5

                  2.000000   2.000000   2.000000   2.000000   2.000000

    1             0.000003   2.001187  -0.000371   0.000000  -0.000000
    2            -0.000036  -0.000660  -0.000024  -0.000000  -0.000000
    3             0.000000  -0.000538   2.002978  -0.000674  -0.000021
    4             0.000000   0.000002  -0.000690   1.942294   0.060388
    5             0.000000  -0.000000   0.000002   0.060321   1.942645
    6            -0.000617   0.000000   0.000000   0.000000  -0.000000
    7             2.001267   0.000003  -0.000000  -0.000000  -0.000000
    8            -0.000617   0.000000   0.000000   0.000000  -0.000000
    9             0.000000   0.000003  -0.000948  -0.000000  -0.000000
   10             0.000000   0.000003  -0.000948  -0.000000  -0.000000
   11             0.000000  -0.000000   0.000000  -0.000946  -0.000043
   12             0.000000  -0.000000   0.000000  -0.000946  -0.000043
   13            -0.000000  -0.000000   0.000000  -0.000017  -0.000976
   14            -0.000000  -0.000000   0.000000  -0.000017  -0.000976
   15             0.000000  -0.000000   0.000000  -0.000017  -0.000975

                      6          7          8          9         10

                  2.000000   2.000000   2.000000   2.000000   2.000000

    1             0.026686   1.464461   0.063804   0.143099   0.075280
    2             0.016869   0.150418   0.015397   0.039816   0.004711
    3             0.004144   0.295520   0.231026   0.498131   0.428423
    4             0.000191   0.020255   0.700468   0.197403   0.512321
    5             0.000006   0.000940   0.567843   0.549807   0.194724
    6             0.174368   0.004395   0.000053   0.000149   0.000011
    7             1.602979   0.034325   0.000425   0.001765   0.000306
    8             0.174401   0.004392   0.000054   0.000155   0.000015
    9             0.000167   0.011256   0.024096   0.095890   0.146289
   10             0.000167   0.011257   0.024119   0.095922   0.146484
   11             0.000010   0.001327   0.082651   0.011990   0.174564
   12             0.000010   0.001324   0.082670   0.011992   0.174543
   13             0.000000   0.000052   0.070811   0.109136   0.060130
   14             0.000000   0.000052   0.070812   0.109150   0.060143
   15             0.000000   0.000026   0.065773   0.135593   0.022057

                     11         12         13         14         15

                  2.000000   2.000000   2.000000   2.000000   2.000000

    1             0.000383   0.087853   0.652004   0.090475   0.184112
    2             0.000000   0.000021   0.393624   0.000883   0.000000
    3             0.000447   0.423031   0.320905   0.206032   0.418866
    4             0.000140   0.454679   0.080760   0.252281   0.037072
    5             0.000041   0.236731   0.075887   0.740252   0.524312
    6             0.451278   0.000306   0.023607   0.000001   0.000059
    7             1.095752   0.000673   0.303980   0.000643   0.000130
    8             0.451471   0.000231   0.023422   0.000000   0.000037
    9             0.000190   0.151652   0.045664   0.018330   0.170275
   10             0.000176   0.149245   0.047992   0.018268   0.170891
   11             0.000048   0.157987   0.001723   0.025564   0.015455
   12             0.000041   0.158490   0.001288   0.025441   0.015423
   13             0.000016   0.089180   0.008260   0.078143   0.231168
   14             0.000014   0.089922   0.007442   0.077826   0.232198
   15             0.000000   0.000000   0.013443   0.465862   0.000000

                     16         17         18         19         20

                  2.000000   2.000000   2.000000   2.000000   2.000000

    1             0.087646   0.129206   0.069400   0.081909   0.596886
    2             0.000334   0.032379   0.007235   0.000000   0.006324
    3             0.094630   0.028982   0.333986   0.074243   0.339181
    4             0.103898   0.462467   0.295104   0.521007   0.252215
    5             0.095073   0.476370   0.158280   0.254340   0.285113
    6             0.140168   0.009637   0.000082   0.000006   0.000452
    7             1.287985   0.491262   0.825996   0.000027   0.390472
    8             0.140261   0.009628   0.000089   0.000008   0.000466
    9             0.012084   0.000459   0.013004   0.051242   0.020348
   10             0.011649   0.000469   0.013298   0.050921   0.020551
   11             0.001657   0.086172   0.042283   0.312213   0.010793
   12             0.001639   0.086014   0.043542   0.311277   0.010807
   13             0.010177   0.086045   0.026014   0.171678   0.002948
   14             0.009633   0.085810   0.026717   0.171130   0.002952
   15             0.003166   0.015102   0.144970   0.000001   0.060493

                     21         22

                  2.000000   2.000000

    1             0.968313   1.616844
    2             0.124975   0.000000
    3             0.205287   0.087352
    4             0.204580   0.002720
    5             0.015789   0.000397
    6             0.004990   0.000006
    7             0.294235   0.000043
    8             0.005019   0.000007
    9             0.064160   0.140129
   10             0.063344   0.140727
   11             0.014329   0.005861
   12             0.014176   0.005914
   13             0.001873  -0.000000
   14             0.001864  -0.000001
   15             0.017067   0.000000

               ----- POPULATIONS IN EACH AO -----
                             MULLIKEN      LOWDIN
              1  O  1  S      1.99773     1.99597
              2  O  1  S      1.83109     1.70818
              3  O  1  X      1.51638     1.53346
              4  O  1  Y      1.32849     1.34764
              5  O  1  Z      1.66548     1.67440
              6  H  2  S      0.79227     0.85201
              7  C  3  S      1.99238     1.98476
              8  C  3  S      1.17574     1.04574
              9  C  3  X      0.90847     0.94262
             10  C  3  Y      0.94583     0.98053
             11  C  3  Z      0.96951     0.99864
             12  C  4  S      1.99205     1.98504
             13  C  4  S      1.17836     1.02717
             14  C  4  X      0.97696     1.00779
             15  C  4  Y      0.96001     0.99698
             16  C  4  Z      0.99217     1.02063
             17  C  5  S      1.99203     1.98537
             18  C  5  S      1.18360     1.01386
             19  C  5  X      0.98942     1.02107
             20  C  5  Y      1.00265     1.03098
             21  C  5  Z      1.01117     1.03768
             22  H  6  S      0.80895     0.86251
             23  O  7  S      1.99773     1.99603
             24  O  7  S      1.83867     1.69373
             25  O  7  X      1.38425     1.39880
             26  O  7  Y      1.47618     1.48729
             27  O  7  Z      1.63545     1.64449
             28  H  8  S      0.80904     0.86259
             29  H  9  S      0.96429     0.99593
             30  H 10  S      0.96454     0.99613
             31  H 11  S      0.94364     0.97537
             32  H 12  S      0.94360     0.97535
             33  H 13  S      0.94464     0.97434
             34  H 14  S      0.94467     0.97437
             35  H 15  S      0.94256     0.97257

          ----- MULLIKEN ATOMIC OVERLAP POPULATIONS -----
          (OFF-DIAGONAL ELEMENTS NEED TO BE MULTIPLIED BY 2)

             1           2           3           4           5

    1    7.8754493
    2    0.2526459   0.5704682
    3    0.2653206  -0.0394345   4.7287657
    4   -0.0177421   0.0024040   0.3568704   4.7376098
    5    0.0002092  -0.0000336  -0.0200964   0.3617000   4.7307663
    6    0.0002884  -0.0024107  -0.0000024   0.0000001  -0.0000000
    7   -0.0048211   0.0175080   0.0001502  -0.0000009   0.0000000
    8    0.0002902  -0.0024007  -0.0000030   0.0000002  -0.0000000
    9   -0.0157510  -0.0032676   0.3737757  -0.0236750  -0.0016628
   10   -0.0157668  -0.0032344   0.3737249  -0.0236943  -0.0016720
   11   -0.0004731   0.0000111  -0.0221710   0.3833510  -0.0217172
   12   -0.0004703   0.0000109  -0.0221702   0.3833661  -0.0217243
   13    0.0000024  -0.0000009  -0.0019781  -0.0205237   0.3841672
   14    0.0000024  -0.0000009  -0.0019783  -0.0205235   0.3841648
   15   -0.0000038   0.0000007   0.0011564  -0.0195866   0.3847722

             6           7           8           9          10

    6    0.5963139
    7    0.2584391   7.8024930
    8   -0.0436716   0.2584142   0.5964148
    9   -0.0000039   0.0000420  -0.0000012   0.6639728
   10   -0.0000011   0.0000418  -0.0000043  -0.0289579   0.6642699
   11    0.0000000  -0.0000000   0.0000000   0.0018445  -0.0023790
   12    0.0000000  -0.0000000   0.0000000  -0.0023900   0.0018450
   13   -0.0000000   0.0000000  -0.0000000   0.0003622   0.0000035
   14   -0.0000000   0.0000000  -0.0000000   0.0000035   0.0003628
   15    0.0000000  -0.0000000   0.0000000  -0.0000017  -0.0000016

            11          12          13          14          15

   11    0.6311855
   12   -0.0236028   0.6311519
   13    0.0018377  -0.0021522   0.6272259
   14   -0.0021514   0.0018380  -0.0223199   0.6272622
   15   -0.0020972  -0.0020984  -0.0219880  -0.0219874   0.6243978

          TOTAL MULLIKEN AND LOWDIN ATOMIC POPULATIONS
       ATOM         MULL.POP.    CHARGE          LOW.POP.     CHARGE
    1 O             8.339180   -0.339180         8.259647   -0.259647
    2 H             0.792266    0.207734         0.852006    0.147994
    3 C             5.991930    0.008070         5.952292    0.047708
    4 C             6.099555   -0.099555         6.037606   -0.037606
    5 C             6.178873   -0.178873         6.088960   -0.088960
    6 H             0.808952    0.191048         0.862509    0.137491
    7 O             8.332266   -0.332266         8.220332   -0.220332
    8 H             0.809039    0.190961         0.862585    0.137415
    9 H             0.964290    0.035710         0.995935    0.004065
   10 H             0.964536    0.035464         0.996131    0.003869
   11 H             0.943638    0.056362         0.975375    0.024625
   12 H             0.943604    0.056396         0.975351    0.024649
   13 H             0.944636    0.055364         0.974338    0.025662
   14 H             0.944672    0.055328         0.974366    0.025634
   15 H             0.942562    0.057438         0.972569    0.027431

          -------------------------------
          BOND ORDER AND VALENCE ANALYSIS     BOND ORDER THRESHOLD=0.050
          -------------------------------

                   BOND                       BOND                       BOND
  ATOM PAIR DIST  ORDER      ATOM PAIR DIST  ORDER      ATOM PAIR DIST  ORDER
    1   2  0.992  0.878        1   3  1.429  1.002        2   7  1.723  0.060
    3   4  1.547  0.986        3   9  1.098  0.964        3  10  1.098  0.964
    4   5  1.541  1.001        4  11  1.088  0.976        4  12  1.088  0.976
    5  13  1.086  0.984        5  14  1.086  0.984        5  15  1.086  0.984
    6   7  0.987  0.953        7   8  0.987  0.953

                       TOTAL       BONDED        FREE
      ATOM            VALENCE     VALENCE     VALENCE
    1 O                 1.973       1.973      -0.000
    2 H                 0.957       0.957       0.000
    3 C                 3.943       3.943      -0.000
    4 C                 3.966       3.966      -0.000
    5 C                 3.968       3.968       0.000
    6 H                 0.964       0.964      -0.000
    7 O                 2.001       2.001      -0.000
    8 H                 0.964       0.964      -0.000
    9 H                 0.999       0.999      -0.000
   10 H                 0.999       0.999      -0.000
   11 H                 0.997       0.997      -0.000
   12 H                 0.997       0.997      -0.000
   13 H                 0.997       0.997       0.000
   14 H                 0.997       0.997       0.000
   15 H                 0.997       0.997      -0.000

          ---------------------
          ELECTROSTATIC MOMENTS
          ---------------------

 POINT   1           X           Y           Z (BOHR)    CHARGE
                -5.421184    1.089976   -0.449293       -0.00 (A.U.)
         DX          DY          DZ         /D/  (DEBYE)
    -0.630171    2.517141   -1.167887    2.845536
 ...... END OF PROPERTY EVALUATION ......
 STEP CPU TIME =     0.01 TOTAL CPU TIME =         15.8 (      0.3 MIN)
 TOTAL WALL CLOCK TIME=         16.3 SECONDS, CPU UTILIZATION IS    96.82%
  $VIB   
          IVIB=   0 IATOM=   0 ICOORD=   0 E=     -265.6885027602
  2.666618141E-05-2.462644694E-05-1.771277069E-05 6.253679532E-06-2.275773304E-05
 -1.649706130E-05-2.111509639E-05 4.088257973E-05 1.039741215E-05-1.483370546E-05
 -2.491281141E-05 4.521979455E-06-5.597170984E-05-3.023477241E-06 5.640110334E-05
 -7.693803466E-05 4.019746990E-05-3.371720073E-06 9.430009756E-05-9.595868952E-05
 -1.275580844E-05-2.253228463E-05 6.455563684E-05 2.372502318E-05 3.018490352E-06
  1.233442164E-05 1.780389964E-05 2.479936030E-06-1.839036820E-05-1.360567557E-05
 -3.012186466E-06-1.922617741E-06 1.239043520E-05 3.239411961E-05 5.347879717E-06
 -5.181807995E-06 6.033923590E-06-7.723837390E-06-3.319226870E-05 3.432990321E-05
  1.570004843E-05-1.103424488E-05-1.107333100E-05 2.029795683E-05-1.188849560E-05
 -6.301714820E-01 2.517141052E+00-1.167886872E+00
 ......END OF GEOMETRY SEARCH......
 STEP CPU TIME =     0.02 TOTAL CPU TIME =         15.8 (      0.3 MIN)
 TOTAL WALL CLOCK TIME=         16.3 SECONDS, CPU UTILIZATION IS    96.94%
               580000  WORDS OF DYNAMIC MEMORY USED
 EXECUTION OF GAMESS TERMINATED NORMALLY Mon Mar  9 21:12:59 2020
 DDI: 263640 bytes (0.3 MB / 0 MWords) used by master data server.

 ----------------------------------------
 CPU timing information for all processes
 ========================================
 0: 15.180 + 0.650 = 15.830
 1: 0.01 + 0.01 = 0.03
 ----------------------------------------
 ddikick.x: exited gracefully.
unset echo
----- accounting info -----
Files used on the master node 192.168.0.12 were:
-rw-r--r--@ 1 wurthel  staff      908 Mar  9 21:12 .//input/complex_3.F05
-rw-r--r--  1 wurthel  staff  1980176 Mar  9 21:12 .//input/complex_3.F08
-rw-r--r--  1 wurthel  staff  1701440 Mar  9 21:12 .//input/complex_3.F10
-rw-r--r--  1 wurthel  staff  2042033 Mar  9 21:12 .//input/complex_3.dat
-rw-r--r--@ 1 wurthel  staff      908 Mar  9 21:03 .//input/complex_3.inp
-rw-r--r--  1 wurthel  staff  1278534 Mar  9 21:13 .//input/complex_3.log
ls: No match.
ls: No match.
ls: No match.
Mon Mar  9 21:13:02 MSK 2020
15.260u 0.726s 0:19.50 81.9%	0+0k 0+0io 0pf+0w
