----- GAMESS execution script 'rungms' -----
This job is running on host 192.168.0.12
under operating system Darwin at Mon Mar 9 21:12:30 MSK 2020
Available scratch disk space (Kbyte units) at beginning of the job is
Filesystem   1024-blocks     Used Available Capacity iused               ifree %iused  Mounted on
/dev/disk1s5   118181844 44014584  70804836    39%  990767 9223372036853785040    0%   /
GAMESS temporary binary files will be written to ./
GAMESS supplementary output files will be written to ./
Copying input file input/complex_2.inp to your run's scratch directory...
cp input/complex_2.inp .//input/complex_2.F05
unset echo
.//ddikick.x .//gamess.30Sep2018R3.x input/complex_2 -ddi 1 1 192.168.0.12 -scr ./

 Distributed Data Interface kickoff program.
 Initiating 1 compute processes on 1 nodes to run the following command:
 .//gamess.30Sep2018R3.x input/complex_2 

          ******************************************************
          *         GAMESS VERSION = 30 SEP 2018 (R3)         *
          *             FROM IOWA STATE UNIVERSITY             *
          * M.W.SCHMIDT, K.K.BALDRIDGE, J.A.BOATZ, S.T.ELBERT, *
          *   M.S.GORDON, J.H.JENSEN, S.KOSEKI, N.MATSUNAGA,   *
          *          K.A.NGUYEN, S.J.SU, T.L.WINDUS,           *
          *       TOGETHER WITH M.DUPUIS, J.A.MONTGOMERY       *
          *         J.COMPUT.CHEM.  14, 1347-1363(1993)        *
          **************** 64 BIT APPLE VERSION ****************

  SINCE 1993, STUDENTS AND POSTDOCS WORKING AT IOWA STATE UNIVERSITY
  AND ALSO IN THEIR VARIOUS JOBS AFTER LEAVING ISU HAVE MADE IMPORTANT
  CONTRIBUTIONS TO THE CODE:
     IVANA ADAMOVIC, CHRISTINE AIKENS, YURI ALEXEEV, POOJA ARORA,
     ANDREY ASADCHEV, ROB BELL, PRADIPTA BANDYOPADHYAY, JONATHAN BENTZ,
     BRETT BODE, KURT BRORSEN, CALEB CARLIN, GALINA CHABAN, WEI CHEN,
     CHEOL HO CHOI, PAUL DAY, ALBERT DEFUSCO, NUWAN DESILVA, TIM DUDLEY,
     DMITRI FEDOROV, ALEX FINDLATER, GRAHAM FLETCHER, MARK FREITAG,
     KURT GLAESEMANN, ANASTASIA GUNINA,
     DAN KEMP, GRANT MERRILL, NORIYUKI MINEZAWA, JONATHAN MULLIN,
     TAKESHI NAGATA, SEAN NEDD, HEATHER NETZLOFF, BOSILJKA NJEGIC, RYAN OLSON,
     MIKE PAK, BUU PHAM,
     SPENCER PRUITT, LUKE ROSKOP, JIM SHOEMAKER, LYUDMILA SLIPCHENKO,
     TONY SMITH, SAROM SOK LEANG, JIE SONG, TETSUYA TAKETSUGU, SIMON WEBB,
     PENG XU, SOOHAENG YOO, FEDERICO ZAHARIEV

  ADDITIONAL CODE HAS BEEN PROVIDED BY COLLABORATORS IN OTHER GROUPS:
     IOWA STATE UNIVERSITY:
          JOE IVANIC, AARON WEST, LAIMUTIS BYTAUTAS, KLAUS RUEDENBERG
     UNIVERSITY OF TOKYO: KIMIHIKO HIRAO, TAKAHITO NAKAJIMA,
          TAKAO TSUNEDA, MUNEAKI KAMIYA, SUSUMU YANAGISAWA,
          KIYOSHI YAGI, MAHITO CHIBA, SEIKEN TOKURA, NAOAKI KAWAKAMI
     UNIVERSITY OF AARHUS: FRANK JENSEN
     UNIVERSITY OF IOWA: VISVALDAS KAIRYS, HUI LI
     NATIONAL INST. OF STANDARDS AND TECHNOLOGY: WALT STEVENS, DAVID GARMER
     UNIVERSITY OF PISA: BENEDETTA MENNUCCI, JACOPO TOMASI
     UNIVERSITY OF MEMPHIS: HENRY KURTZ, PRAKASHAN KORAMBATH
     UNIVERSITY OF ALBERTA: TOBY ZENG, MARIUSZ KLOBUKOWSKI
     UNIVERSITY OF NEW ENGLAND: MARK SPACKMAN
     MIE UNIVERSITY: HIROAKI UMEDA
     NAT. INST. OF ADVANCED INDUSTRIAL SCIENCE AND TECHNOLOGY: KAZUO KITAURA
     MICHIGAN STATE UNIVERSITY:
          KAROL KOWALSKI, MARTA WLOCH, JEFFREY GOUR, JESSE LUTZ,
          WEI LI, JUN SHEN, J. EMILIANO DEUSTUA, PIOTR PIECUCH
     UNIVERSITY OF MINNESOTA:
          YINAN SHU
     UNIVERSITY OF SILESIA: MONIKA MUSIAL, STANISLAW KUCHARSKI
     FACULTES UNIVERSITAIRES NOTRE-DAME DE LA PAIX:
          OLIVIER QUINET, BENOIT CHAMPAGNE
     UNIVERSITY OF CALIFORNIA - SANTA BARBARA: BERNARD KIRTMAN
     INSTITUTE FOR MOLECULAR SCIENCE:
          KAZUYA ISHIMURA, MICHIO KATOUDA, AND SHIGERU NAGASE
     UNIVERSITY OF NOTRE DAME: ANNA POMOGAEVA, DAN CHIPMAN
     KYUSHU UNIVERSITY:
          HARUYUKI NAKANO,
          FENG LONG GU, JACEK KORCHOWIEC, MARCIN MAKOWSKI, AND YURIKO AOKI,
          HIROTOSHI MORI AND EISAKU MIYOSHI
     PENNSYLVANIA STATE UNIVERSITY:
          TZVETELIN IORDANOV, CHET SWALINA, JONATHAN SKONE,
          SHARON HAMMES-SCHIFFER
     WASEDA UNIVERSITY:
          MASATO KOBAYASHI, TOMOKO AKAMA, TSUGUKI TOUMA,
          TAKESHI YOSHIKAWA, YASUHIRO IKABATA, JUNJI SEINO,
          YUYA NAKAJIMA, HIROMI NAKAI
     NANJING UNIVERSITY: SHUHUA LI
     UNIVERSITY OF NEBRASKA:
          PEIFENG SU, DEJUN SI, NANDUN THELLAMUREGE, YALI WANG, HUI LI
     UNIVERSITY OF ZURICH: ROBERTO PEVERATI, KIM BALDRIDGE
     N. COPERNICUS UNIVERSITY AND JACKSON STATE UNIVERSITY:
          MARIA BARYSZ
     UNIVERSITY OF COPENHAGEN: Jimmy Kromann, CASPER STEINMANN
     TOKYO INSTITUTE OF TECHNOLOGY: HIROYA NAKATA
     NAGOYA UNIVERSITY: YOSHIO NISHIMOTO, STEPHAN IRLE
     MOSCOW STATE UNIVERSITY: VLADIMIR MIRONOV

 EXECUTION OF GAMESS BEGUN Mon Mar  9 21:12:30 2020

            ECHO OF THE FIRST FEW INPUT CARDS -
 INPUT CARD>!   File created by the GAMESS Input Deck Generator Plugin for Avogadro         
 INPUT CARD> $BASIS GBASIS=STO NGAUSS=3 $END                                                
 INPUT CARD> $CONTRL SCFTYP=RHF RUNTYP=OPTIMIZE MAXIT=200 $END                              
 INPUT CARD> $STATPT OPTTOL=0.0001 NSTEP=200 $END                                           
 INPUT CARD>                                                                                
 INPUT CARD> $DATA                                                                          
 INPUT CARD>Title                                                                           
 INPUT CARD>C1                                                                              
 INPUT CARD>O     8.0    -4.15553     1.07610     0.20197                                   
 INPUT CARD>H     1.0    -4.41033     1.93750    -0.15593                                   
 INPUT CARD>C     6.0    -2.90373     0.59050    -0.28733                                   
 INPUT CARD>C     6.0    -2.60363    -0.77120     0.34237                                   
 INPUT CARD>C     6.0    -1.26343    -1.29110    -0.18143                                   
 INPUT CARD>H     1.0    -5.74663     1.42039     0.81667                                   
 INPUT CARD>O     8.0    -5.26844     2.11607     0.34505                                   
 INPUT CARD>H     1.0    -5.67426     2.99089     0.41753                                   
 INPUT CARD>H     1.0    -2.95293     0.48670    -1.37123                                   
 INPUT CARD>H     1.0    -2.11363     1.29410    -0.02513                                   
 INPUT CARD>H     1.0    -2.55453    -0.66740     1.42627                                   
 INPUT CARD>H     1.0    -3.39383    -1.47480     0.08027                                   
 INPUT CARD>H     1.0    -1.31253    -1.39490    -1.26533                                   
 INPUT CARD>H     1.0    -0.47323    -0.58750     0.08067                                   
 INPUT CARD>H     1.0    -1.04963    -2.26120     0.26717                                   
 INPUT CARD> $END                                                                           
    1000000 WORDS OF MEMORY AVAILABLE

     BASIS OPTIONS
     -------------
     GBASIS=STO          IGAUSS=       3      POLAR=NONE    
     NDFUNC=       0     NFFUNC=       0     DIFFSP=       F
     NPFUNC=       0      DIFFS=       F     BASNAM=        


     RUN TITLE
     ---------
 Title                                                                           

 THE POINT GROUP OF THE MOLECULE IS C1      
 THE ORDER OF THE PRINCIPAL AXIS IS     0

 ATOM      ATOMIC                      COORDINATES (BOHR)
           CHARGE         X                   Y                   Z
 O           8.0    -7.8528130338        2.0335341354        0.3816679577
 H           1.0    -8.3343152154        3.6613441012       -0.2946649733
 C           6.0    -5.4872540423        1.1158831957       -0.5429749681
 C           6.0    -4.9201472734       -1.4573566817        0.6469854864
 C           6.0    -2.3875365047       -2.4398252227       -0.3428529860
 H           1.0   -10.8595560528        2.6841478957        1.5432825224
 O           8.0    -9.9559079828        3.9987924708        0.6520499521
 H           1.0   -10.7227965831        5.6519625594        0.7890172917
 H           1.0    -5.5802285609        0.9197296382       -2.5912489661
 H           1.0    -3.9941815394        2.4454944007       -0.0474888141
 H           1.0    -4.8273617274       -1.2612031242        2.6952594845
 H           1.0    -6.4134087489       -2.7869678867        0.1516883050
 H           1.0    -2.4803220507       -2.6359787803       -2.3911269840
 H           1.0    -0.8942750292       -1.1102140178        0.1524441954
 H           1.0    -1.9835130885       -4.2730484034        0.5048780921

          INTERNUCLEAR DISTANCES (ANGS.)
          ------------------------------

                1 O          2 H          3 C          4 C          5 C     

   1 O       0.0000000    0.9669671 *  1.4290644 *  2.4167381 *  3.7569767  
   2 H       0.9669671 *  0.0000000    2.0252206 *  3.2938615    4.5086015  
   3 C       1.4290644 *  2.0252206 *  0.0000000    1.5299703 *  2.4984430 *
   4 C       2.4167381 *  3.2938615    1.5299703 *  0.0000000    1.5299668 *
   5 C       3.7569767    4.5086015    2.4984430 *  1.5299668 *  0.0000000  
   6 H       1.7401123 *  1.7317769 *  3.1606350    3.8608906    5.3336164  
   7 O       1.5298948 *  1.0095647 *  2.8842888 *  3.9290645    5.2845145  
   8 H       2.4534522 *  1.7424138 *  3.7328992    4.8567210    6.1765373  
   9 H       2.0660584 *  2.3886794 *  1.0899699 *  2.1542395 *  2.7259140 *
  10 H       2.0660237 *  2.3887032 *  1.0899816 *  2.1542099 *  2.7258996 *
  11 H       2.6649397 *  3.5683126    2.1542233 *  1.0899653 *  2.1542145 *
  12 H       2.6649744 *  3.5683125    2.1542497 *  1.0900300 *  2.1542601 *
  13 H       4.0424571    4.6831638    2.7258420 *  2.1542145 *  1.0899653 *
  14 H       4.0424760    4.6831999    2.7258830 *  2.1542601 *  1.0900300 *
  15 H       4.5594339    5.3946640    3.4463531    2.1542217 *  1.0899754 *

                6 H          7 O          8 H          9 H         10 H     

   1 O       1.7401123 *  1.5298948 *  2.4534522 *  2.0660584 *  2.0660237 *
   2 H       1.7317769 *  1.0095647 *  1.7424138 *  2.3886794 *  2.3887032 *
   3 C       3.1606350    2.8842888 *  3.7328992    1.0899699 *  1.0899816 *
   4 C       3.8608906    3.9290645    4.8567210    2.1542395 *  2.1542099 *
   5 C       5.3336164    5.2845145    6.1765373    2.7259140 *  2.7258996 *
   6 H       0.0000000    0.9669859 *  1.6220420 *  3.6692565    3.7313892  
   7 O       0.9669859 *  0.0000000    0.9670849 *  3.3108987    3.2810812  
   8 H       1.6220420 *  0.9670849 *  0.0000000    4.1080734    3.9690213  
   9 H       3.6692565    3.3108987    4.1080734    0.0000000    1.7799732 *
  10 H       3.7313892    3.2810812    3.9690213    1.7799732 *  0.0000000  
  11 H       3.8626392    4.0351022    4.9125714    3.0523230    2.4796042 *
  12 H       3.8026409    4.0593865    5.0255838    2.4796627 *  3.0523480  
  13 H       5.6499402    5.5289654    6.4102933    2.4985087 *  3.0676666  
  14 H       5.6905242    5.5111910    6.3221090    3.0677078    2.4985044 *
  15 H       5.9931514    6.0798779    6.9995900    3.7226147    3.7225923  

               11 H         12 H         13 H         14 H         15 H     

   1 O       2.6649397 *  2.6649744 *  4.0424571    4.0424760    4.5594339  
   2 H       3.5683126    3.5683125    4.6831638    4.6831999    5.3946640  
   3 C       2.1542233 *  2.1542497 *  2.7258420 *  2.7258830 *  3.4463531  
   4 C       1.0899653 *  1.0900300 *  2.1542145 *  2.1542601 *  2.1542217 *
   5 C       2.1542145 *  2.1542601 *  1.0899653 *  1.0900300 *  1.0899754 *
   6 H       3.8626392    3.8026409    5.6499402    5.6905242    5.9931514  
   7 O       4.0351022    4.0593865    5.5289654    5.5111910    6.0798779  
   8 H       4.9125714    5.0255838    6.4102933    6.3221090    6.9995900  
   9 H       3.0523230    2.4796627 *  2.4985087 *  3.0677078    3.7226147  
  10 H       2.4796042 *  3.0523480    3.0676666    2.4985044 *  3.7225923  
  11 H       0.0000000    1.7798975 *  3.0522993    2.4796841 *  2.4796039 *
  12 H       1.7798975 *  0.0000000    2.4796841 *  3.0524098    2.4796432 *
  13 H       3.0522993    2.4796841 *  0.0000000    1.7798975 *  1.7799293 *
  14 H       2.4796841 *  3.0524098    1.7798975 *  0.0000000    1.7799694 *
  15 H       2.4796039 *  2.4796432 *  1.7799293 *  1.7799694 *  0.0000000  

  * ... LESS THAN  3.000


     ATOMIC BASIS SET
     ----------------
 THE CONTRACTED PRIMITIVE FUNCTIONS HAVE BEEN UNNORMALIZED
 THE CONTRACTED BASIS FUNCTIONS ARE NOW NORMALIZED TO UNITY

  SHELL TYPE  PRIMITIVE        EXPONENT          CONTRACTION COEFFICIENT(S)

 O         

      1   S       1           130.7093214    0.154328967295
      1   S       2            23.8088661    0.535328142282
      1   S       3             6.4436083    0.444634542185

      2   L       4             5.0331513   -0.099967229187    0.155916274999
      2   L       5             1.1695961    0.399512826089    0.607683718598
      2   L       6             0.3803890    0.700115468880    0.391957393099

 H         

      3   S       7             3.4252509    0.154328967295
      3   S       8             0.6239137    0.535328142282
      3   S       9             0.1688554    0.444634542185

 C         

      4   S      10            71.6168373    0.154328967295
      4   S      11            13.0450963    0.535328142282
      4   S      12             3.5305122    0.444634542185

      5   L      13             2.9412494   -0.099967229187    0.155916274999
      5   L      14             0.6834831    0.399512826089    0.607683718598
      5   L      15             0.2222899    0.700115468880    0.391957393099

 C         

      6   S      16            71.6168373    0.154328967295
      6   S      17            13.0450963    0.535328142282
      6   S      18             3.5305122    0.444634542185

      7   L      19             2.9412494   -0.099967229187    0.155916274999
      7   L      20             0.6834831    0.399512826089    0.607683718598
      7   L      21             0.2222899    0.700115468880    0.391957393099

 C         

      8   S      22            71.6168373    0.154328967295
      8   S      23            13.0450963    0.535328142282
      8   S      24             3.5305122    0.444634542185

      9   L      25             2.9412494   -0.099967229187    0.155916274999
      9   L      26             0.6834831    0.399512826089    0.607683718598
      9   L      27             0.2222899    0.700115468880    0.391957393099

 H         

     10   S      28             3.4252509    0.154328967295
     10   S      29             0.6239137    0.535328142282
     10   S      30             0.1688554    0.444634542185

 O         

     11   S      31           130.7093214    0.154328967295
     11   S      32            23.8088661    0.535328142282
     11   S      33             6.4436083    0.444634542185

     12   L      34             5.0331513   -0.099967229187    0.155916274999
     12   L      35             1.1695961    0.399512826089    0.607683718598
     12   L      36             0.3803890    0.700115468880    0.391957393099

 H         

     13   S      37             3.4252509    0.154328967295
     13   S      38             0.6239137    0.535328142282
     13   S      39             0.1688554    0.444634542185

 H         

     14   S      40             3.4252509    0.154328967295
     14   S      41             0.6239137    0.535328142282
     14   S      42             0.1688554    0.444634542185

 H         

     15   S      43             3.4252509    0.154328967295
     15   S      44             0.6239137    0.535328142282
     15   S      45             0.1688554    0.444634542185

 H         

     16   S      46             3.4252509    0.154328967295
     16   S      47             0.6239137    0.535328142282
     16   S      48             0.1688554    0.444634542185

 H         

     17   S      49             3.4252509    0.154328967295
     17   S      50             0.6239137    0.535328142282
     17   S      51             0.1688554    0.444634542185

 H         

     18   S      52             3.4252509    0.154328967295
     18   S      53             0.6239137    0.535328142282
     18   S      54             0.1688554    0.444634542185

 H         

     19   S      55             3.4252509    0.154328967295
     19   S      56             0.6239137    0.535328142282
     19   S      57             0.1688554    0.444634542185

 H         

     20   S      58             3.4252509    0.154328967295
     20   S      59             0.6239137    0.535328142282
     20   S      60             0.1688554    0.444634542185

 TOTAL NUMBER OF BASIS SET SHELLS             =   20
 NUMBER OF CARTESIAN GAUSSIAN BASIS FUNCTIONS =   35
 NUMBER OF ELECTRONS                          =   44
 CHARGE OF MOLECULE                           =    0
 SPIN MULTIPLICITY                            =    1
 NUMBER OF OCCUPIED ORBITALS (ALPHA)          =   22
 NUMBER OF OCCUPIED ORBITALS (BETA )          =   22
 TOTAL NUMBER OF ATOMS                        =   15
 THE NUCLEAR REPULSION ENERGY IS      203.4415300859

     $CONTRL OPTIONS
     ---------------
 SCFTYP=RHF          RUNTYP=OPTIMIZE     EXETYP=RUN     
 MPLEVL=       0     CITYP =NONE         CCTYP =NONE         VBTYP =NONE    
 DFTTYP=NONE         TDDFT =NONE    
 MULT  =       1     ICHARG=       0     NZVAR =       0     COORD =UNIQUE  
 PP    =NONE         RELWFN=NONE         LOCAL =NONE         NUMGRD=       F
 ISPHER=      -1     NOSYM =       0     MAXIT =     200     UNITS =ANGS    
 PLTORB=       F     MOLPLT=       F     AIMPAC=       F     FRIEND=        
 NPRINT=       7     IREST =       0     GEOM  =INPUT   
 NORMF =       0     NORMP =       0     ITOL  =      20     ICUT  =       9
 INTTYP=BEST         GRDTYP=BEST         QMTTOL= 1.0E-06

     $SYSTEM OPTIONS
     ---------------
  REPLICATED MEMORY=     1000000 WORDS (ON EVERY NODE).
 DISTRIBUTED MEMDDI=           0 MILLION WORDS IN AGGREGATE,
 MEMDDI DISTRIBUTED OVER   1 PROCESSORS IS           0 WORDS/PROCESSOR.
 TOTAL MEMORY REQUESTED ON EACH PROCESSOR=     1000000 WORDS.
 TIMLIM=      525600.00 MINUTES, OR     365.0 DAYS.
 PARALL= F  BALTYP=  DLB     KDIAG=    0  COREFL= F
 MXSEQ2=     300 MXSEQ3=     150  mem10=         0

          ----------------
          PROPERTIES INPUT
          ----------------

     MOMENTS            FIELD           POTENTIAL          DENSITY
 IEMOM =       1   IEFLD =       0   IEPOT =       0   IEDEN =       0
 WHERE =COMASS     WHERE =NUCLEI     WHERE =NUCLEI     WHERE =NUCLEI  
 OUTPUT=BOTH       OUTPUT=BOTH       OUTPUT=BOTH       OUTPUT=BOTH    
 IEMINT=       0   IEFINT=       0                     IEDINT=       0
                                                       MORB  =       0
          EXTRAPOLATION IN EFFECT
          SOSCF IN EFFECT
 ORBITAL PRINTING OPTION: NPREO=     1    35     2     1

     -------------------------------
     INTEGRAL TRANSFORMATION OPTIONS
     -------------------------------
     NWORD  =            0
     CUTOFF = 1.0E-09     MPTRAN =       0
     DIRTRF =       F     AOINTS =DUP     

          ----------------------
          INTEGRAL INPUT OPTIONS
          ----------------------
 NOPK  =       1 NORDER=       0 SCHWRZ=       T

     ------------------------------------------
     THE POINT GROUP IS C1 , NAXIS= 0, ORDER= 1
     ------------------------------------------

     DIMENSIONS OF THE SYMMETRY SUBSPACES ARE
 A   =   35

 ..... DONE SETTING UP THE RUN .....
 STEP CPU TIME =     0.00 TOTAL CPU TIME =          0.0 (      0.0 MIN)
 TOTAL WALL CLOCK TIME=          0.0 SECONDS, CPU UTILIZATION IS     0.00%


          -----------------------------
          STATIONARY POINT LOCATION RUN
          -----------------------------

 OBTAINING INITIAL HESSIAN, HESS=GUESS   
 CARTESIAN COORDINATE OPTIMIZATION USING BADGER'S RULE FORCE CONSTANT GUESS

          PARAMETERS CONTROLLING GEOMETRY SEARCH ARE
          METHOD =QA                  UPHESS =BFGS    
          NNEG   =         0          NFRZ   =         0
          NSTEP  =       200          IFOLOW =         1
          HESS   =GUESS               RESTAR =         F
          IHREP  =         0          HSSEND =         F
          NPRT   =         0          NPUN   =         0
          OPTTOL = 1.000E-04          RMIN   = 1.500E-03
          RMAX   = 1.000E-01          RLIM   = 7.000E-02
          DXMAX  = 3.000E-01          PURIFY =         F
          MOVIE  =         F          TRUPD  =         T
          TRMAX  = 5.000E-01          TRMIN  = 5.000E-02
          ITBMAT =         5          STPT   =         F
          STSTEP = 1.000E-02          PROJCT=          T

 BEGINNING GEOMETRY SEARCH POINT NSERCH=   0 ...

 COORDINATES OF ALL ATOMS ARE (ANGS)
   ATOM   CHARGE       X              Y              Z
 ------------------------------------------------------------
 O           8.0  -4.1555300000   1.0761000000   0.2019700000
 H           1.0  -4.4103300000   1.9375000000  -0.1559300000
 C           6.0  -2.9037300000   0.5905000000  -0.2873300000
 C           6.0  -2.6036300000  -0.7712000000   0.3423700000
 C           6.0  -1.2634300000  -1.2911000000  -0.1814300000
 H           1.0  -5.7466300000   1.4203900000   0.8166700000
 O           8.0  -5.2684400000   2.1160700000   0.3450500000
 H           1.0  -5.6742600000   2.9908900000   0.4175300000
 H           1.0  -2.9529300000   0.4867000000  -1.3712300000
 H           1.0  -2.1136300000   1.2941000000  -0.0251300000
 H           1.0  -2.5545300000  -0.6674000000   1.4262700000
 H           1.0  -3.3938300000  -1.4748000000   0.0802700000
 H           1.0  -1.3125300000  -1.3949000000  -1.2653300000
 H           1.0  -0.4732300000  -0.5875000000   0.0806700000
 H           1.0  -1.0496300000  -2.2612000000   0.2671700000

          ********************
          1 ELECTRON INTEGRALS
          ********************
 ...... END OF ONE-ELECTRON INTEGRALS ......
 STEP CPU TIME =     0.00 TOTAL CPU TIME =          0.0 (      0.0 MIN)
 TOTAL WALL CLOCK TIME=          0.0 SECONDS, CPU UTILIZATION IS     0.00%

          -------------
          GUESS OPTIONS
          -------------
          GUESS =HUCKEL            NORB  =       0          NORDER=       0
          MIX   =       F          PRTMO =       F          PUNMO =       F
          TOLZ  = 1.0E-08          TOLE  = 1.0E-05
          SYMDEN=       F          PURIFY=       F

 INITIAL GUESS ORBITALS GENERATED BY HUCKEL   ROUTINE.
 HUCKEL GUESS REQUIRES     23880 WORDS.

 SYMMETRIES FOR INITIAL GUESS ORBITALS FOLLOW.   BOTH SET(S).
    22 ORBITALS ARE OCCUPIED (    5 CORE ORBITALS).
     6=A        7=A        8=A        9=A       10=A       11=A       12=A   
    13=A       14=A       15=A       16=A       17=A       18=A       19=A   
    20=A       21=A       22=A       23=A       24=A       25=A       26=A   
    27=A       28=A       29=A       30=A       31=A       32=A   
 ...... END OF INITIAL ORBITAL SELECTION ......
 STEP CPU TIME =     0.00 TOTAL CPU TIME =          0.0 (      0.0 MIN)
 TOTAL WALL CLOCK TIME=          0.0 SECONDS, CPU UTILIZATION IS     0.00%

                    ----------------------
                    AO INTEGRAL TECHNOLOGY
                    ----------------------
     S,P,L SHELL ROTATED AXIS INTEGRALS, REPROGRAMMED BY
        KAZUYA ISHIMURA (IMS) AND JOSE SIERRA (SYNSTAR).
     S,P,D,L SHELL ROTATED AXIS INTEGRALS PROGRAMMED BY
        KAZUYA ISHIMURA (INSTITUTE FOR MOLECULAR SCIENCE).
     S,P,D,F,G SHELL TO TOTAL QUARTET ANGULAR MOMENTUM SUM 5,
        ERIC PROGRAM BY GRAHAM FLETCHER (ELORET AND NASA ADVANCED
        SUPERCOMPUTING DIVISION, AMES RESEARCH CENTER).
     S,P,D,F,G,L SHELL GENERAL RYS QUADRATURE PROGRAMMED BY
        MICHEL DUPUIS (PACIFIC NORTHWEST NATIONAL LABORATORY).

          --------------------
          2 ELECTRON INTEGRALS
          --------------------

 THE -PK- OPTION IS OFF, THE INTEGRALS ARE NOT IN SUPERMATRIX FORM.
 STORING   15000 INTEGRALS/RECORD ON DISK, USING 12 BYTES/INTEGRAL.
 TWO ELECTRON INTEGRAL EVALUATION REQUIRES   89566 WORDS OF MEMORY.
 SCHWARZ INEQUALITY OVERHEAD:       624 INTEGRALS, T=        0.00
 II,JST,KST,LST =  1  1  1  1 NREC =         1 INTLOC =    1
 II,JST,KST,LST =  2  1  1  1 NREC =         1 INTLOC =    2
 II,JST,KST,LST =  3  1  1  1 NREC =         1 INTLOC =   34
 II,JST,KST,LST =  4  1  1  1 NREC =         1 INTLOC =  145
 II,JST,KST,LST =  5  1  1  1 NREC =         1 INTLOC =  306
 II,JST,KST,LST =  6  1  1  1 NREC =         1 INTLOC = 2004
 II,JST,KST,LST =  7  1  1  1 NREC =         1 INTLOC = 2761
 II,JST,KST,LST =  8  1  1  1 NREC =         1 INTLOC = 8781
 II,JST,KST,LST =  9  1  1  1 NREC =         1 INTLOC =10268
 II,JST,KST,LST = 10  1  1  1 NREC =         2 INTLOC = 9347
 II,JST,KST,LST = 11  1  1  1 NREC =         2 INTLOC =14146
 II,JST,KST,LST = 12  1  1  1 NREC =         3 INTLOC = 2372
 II,JST,KST,LST = 13  1  1  1 NREC =         4 INTLOC =13258
 II,JST,KST,LST = 14  1  1  1 NREC =         5 INTLOC = 6994
 II,JST,KST,LST = 15  1  1  1 NREC =         6 INTLOC = 3161
 II,JST,KST,LST = 16  1  1  1 NREC =         7 INTLOC =  555
 II,JST,KST,LST = 17  1  1  1 NREC =         7 INTLOC =14197
 II,JST,KST,LST = 18  1  1  1 NREC =         8 INTLOC =14209
 II,JST,KST,LST = 19  1  1  1 NREC =         9 INTLOC =14442
 II,JST,KST,LST = 20  1  1  1 NREC =        11 INTLOC =  996
 SCHWARZ INEQUALITY TEST SKIPPED        4126 INTEGRAL BLOCKS.
 TOTAL NUMBER OF NONZERO TWO-ELECTRON INTEGRALS =              167580
         12 INTEGRAL RECORDS WERE STORED ON DISK FILE  8.
  ...... END OF TWO-ELECTRON INTEGRALS .....
 STEP CPU TIME =     0.04 TOTAL CPU TIME =          0.0 (      0.0 MIN)
 TOTAL WALL CLOCK TIME=          0.1 SECONDS, CPU UTILIZATION IS    80.00%

          --------------------------
                 RHF SCF CALCULATION
          --------------------------

     NUCLEAR ENERGY =       203.4415300859
     MAXIT =  200     NPUNCH=    2
     EXTRAP=T  DAMP=F  SHIFT=F  RSTRCT=F  DIIS=F  DEM=F  SOSCF=T
     DENSITY MATRIX CONV=  1.00E-05
     SOSCF WILL OPTIMIZE     286 ORBITAL ROTATIONS, SOGTOL=   0.250
     MEMORY REQUIRED FOR RHF ITERS=     40209 WORDS.

 ITER EX DEM     TOTAL ENERGY        E CHANGE  DENSITY CHANGE     ORB. GRAD
   1  0  0     -264.7987036462  -264.7987036462   0.822746131   0.000000000
          ---------------START SECOND ORDER SCF---------------
   2  1  0     -265.3134968672    -0.5147932211   0.188081955   0.044837415
   3  2  0     -265.3471860029    -0.0336891357   0.135347864   0.019267879
   4  3  0     -265.3512943169    -0.0041083139   0.010642303   0.003818521
   5  4  0     -265.3514878220    -0.0001935051   0.005831586   0.001173285
   6  5  0     -265.3515187299    -0.0000309079   0.000543688   0.000204098
   7  6  0     -265.3515193505    -0.0000006207   0.000224348   0.000045491
   8  7  0     -265.3515194190    -0.0000000684   0.000039527   0.000011307
   9  8  0     -265.3515194217    -0.0000000027   0.000015574   0.000003587
  10  9  0     -265.3515194219    -0.0000000003   0.000002290   0.000000649
  11 10  0     -265.3515194220    -0.0000000000   0.000001010   0.000000194

          -----------------
          DENSITY CONVERGED
          -----------------
     TIME TO FORM FOCK OPERATORS=       0.0 SECONDS (       0.0 SEC/ITER)
     TIME TO SOLVE SCF EQUATIONS=       0.0 SECONDS (       0.0 SEC/ITER)

 FINAL RHF ENERGY IS     -265.3515194220 AFTER  11 ITERATIONS

          ------------
          EIGENVECTORS
          ------------

                      1          2          3          4          5
                  -20.3331   -20.0554   -11.0079   -11.0007   -10.9960
                     A          A          A          A          A   
    1  O  1  S   -0.000236   0.994004   0.000013  -0.000021   0.000435
    2  O  1  S    0.000222   0.026821  -0.000088   0.000387  -0.004356
    3  O  1  X    0.001088   0.001665  -0.000047   0.000185  -0.002392
    4  O  1  Y   -0.000266   0.001909   0.000049  -0.000001   0.001135
    5  O  1  Z   -0.000716  -0.002237  -0.000000  -0.000114   0.000799
    6  H  2  S   -0.004843  -0.006243  -0.000009  -0.000088  -0.001025
    7  C  3  S   -0.000016   0.000545  -0.003495  -0.029238   0.991636
    8  C  3  S   -0.000012  -0.004382   0.000030  -0.006845   0.036130
    9  C  3  X   -0.000016   0.003569  -0.000182  -0.000789   0.001004
   10  C  3  Y    0.000188  -0.001345  -0.000063   0.003771  -0.000130
   11  C  3  Z   -0.000084  -0.001413   0.000151  -0.001769  -0.000546
   12  C  4  S   -0.000004  -0.000023  -0.018936   0.991288   0.030164
   13  C  4  S    0.000048   0.000366  -0.006399   0.037616  -0.004618
   14  C  4  X   -0.000021  -0.000194  -0.003715  -0.000095   0.000880
   15  C  4  Y    0.000050   0.000173   0.001470  -0.000027  -0.003843
   16  C  4  Z   -0.000017   0.000016   0.001435   0.000073   0.001757
   17  C  5  S   -0.000000   0.000010   0.991734   0.019813   0.004171
   18  C  5  S    0.000005  -0.000042   0.037921  -0.005051   0.000037
   19  C  5  X   -0.000000   0.000044   0.000066   0.003795   0.000112
   20  C  5  Y   -0.000003  -0.000109  -0.000020  -0.001435  -0.000264
   21  C  5  Z    0.000002   0.000038  -0.000030  -0.001505   0.000088
   22  H  6  S   -0.005413  -0.000562  -0.000003   0.000015  -0.000002
   23  O  7  S    0.993845   0.000364  -0.000000  -0.000002  -0.000051
   24  O  7  S    0.028441   0.000361   0.000002   0.000016   0.000354
   25  O  7  X   -0.001035  -0.000368  -0.000000   0.000014   0.000250
   26  O  7  Y    0.000003   0.001325   0.000001  -0.000003  -0.000008
   27  O  7  Z    0.000691  -0.000641  -0.000000  -0.000008  -0.000170
   28  H  8  S   -0.005394   0.000024  -0.000001   0.000006   0.000033
   29  H  9  S    0.000094   0.000362   0.000050   0.000256  -0.007113
   30  H 10  S    0.000086   0.000360   0.000050   0.000256  -0.007115
   31  H 11  S    0.000013  -0.000084   0.000201  -0.007028  -0.000213
   32  H 12  S    0.000015  -0.000084   0.000201  -0.007029  -0.000213
   33  H 13  S   -0.000004  -0.000023  -0.006985  -0.000099  -0.000001
   34  H 14  S   -0.000004  -0.000023  -0.006984  -0.000099  -0.000001
   35  H 15  S   -0.000001  -0.000029  -0.006983  -0.000055  -0.000179

                      6          7          8          9         10
                   -1.4287    -1.1652    -0.9762    -0.8475    -0.7430
                     A          A          A          A          A   
    1  O  1  S   -0.093590  -0.194333   0.036940   0.016826   0.011179
    2  O  1  S    0.301476   0.702407  -0.143506  -0.069886  -0.040691
    3  O  1  X   -0.031178   0.043209   0.042713   0.139678  -0.141383
    4  O  1  Y    0.062855   0.045891  -0.055334  -0.130831   0.048902
    5  O  1  Z   -0.018637  -0.058844   0.007486  -0.007774   0.051057
    6  H  2  S    0.120240   0.116299  -0.066304  -0.145062   0.049053
    7  C  3  S   -0.015236  -0.082097  -0.082515  -0.142749   0.069730
    8  C  3  S    0.033090   0.213603   0.222285   0.421396  -0.225462
    9  C  3  X   -0.016228  -0.076032   0.046247  -0.000721   0.034042
   10  C  3  Y    0.006199   0.030191  -0.069585  -0.005891  -0.132608
   11  C  3  Z    0.006439   0.028630   0.012747   0.003290   0.057305
   12  C  4  S   -0.002263  -0.024778  -0.159585  -0.027078  -0.138963
   13  C  4  S    0.004868   0.061126   0.431827   0.080171   0.427946
   14  C  4  X   -0.001384  -0.008715   0.045731  -0.096696  -0.077043
   15  C  4  Y    0.002552   0.020944   0.003568   0.111401  -0.056294
   16  C  4  Z   -0.000676  -0.007162  -0.030799  -0.006652   0.081253
   17  C  5  S   -0.000259  -0.006869  -0.142935   0.140424   0.086910
   18  C  5  S    0.000646   0.017364   0.388975  -0.408394  -0.267673
   19  C  5  X   -0.000312  -0.005620  -0.054933  -0.034603  -0.135402
   20  C  5  Y    0.000192   0.003307   0.025608   0.028857   0.027538
   21  C  5  Z    0.000079   0.001517   0.018841   0.004297   0.067813
   22  H  6  S    0.101767  -0.079032   0.022984   0.042083   0.084810
   23  O  7  S   -0.210418   0.108253  -0.017889  -0.013207  -0.000148
   24  O  7  S    0.740384  -0.421617   0.074086   0.053405   0.007599
   25  O  7  X    0.016943   0.130042  -0.075962  -0.200757   0.114539
   26  O  7  Y   -0.029196  -0.075661   0.045593   0.121431  -0.240615
   27  O  7  Z    0.001156  -0.044388   0.027979   0.081361  -0.006220
   28  H  8  S    0.084208  -0.121937   0.053662   0.134855  -0.187551
   29  H  9  S    0.002986   0.032676   0.055769   0.122405  -0.102645
   30  H 10  S    0.002984   0.032513   0.055705   0.122194  -0.103522
   31  H 11  S    0.000781   0.011901   0.100815   0.023917   0.189338
   32  H 12  S    0.000765   0.011978   0.101031   0.024055   0.190148
   33  H 13  S    0.000074   0.003089   0.094747  -0.125398  -0.132319
   34  H 14  S    0.000074   0.003090   0.094698  -0.125359  -0.132376
   35  H 15  S    0.000057   0.002407   0.090756  -0.140588  -0.105504

                     11         12         13         14         15
                   -0.7353    -0.6698    -0.5793    -0.5236    -0.5154
                     A          A          A          A          A   
    1  O  1  S   -0.041848  -0.088472  -0.000288  -0.021242   0.015054
    2  O  1  S    0.194243   0.386667   0.002665   0.107276  -0.066969
    3  O  1  X   -0.027742   0.125922   0.065202  -0.005074   0.090167
    4  O  1  Y   -0.140218  -0.159124   0.073138   0.033950   0.158010
    5  O  1  Z    0.075333   0.032942   0.127952   0.225646   0.128237
    6  H  2  S   -0.233137  -0.132706  -0.007584  -0.046103  -0.005247
    7  C  3  S    0.000414   0.080027  -0.000633   0.016847  -0.016901
    8  C  3  S    0.009906  -0.229097   0.001470  -0.057081   0.052127
    9  C  3  X   -0.053070  -0.254529   0.148114   0.067109   0.098965
   10  C  3  Y    0.014542   0.012953   0.130276  -0.129352   0.194171
   11  C  3  Z    0.018418   0.155212   0.221993   0.136923  -0.023664
   12  C  4  S    0.036524  -0.022645  -0.000102  -0.012275   0.011099
   13  C  4  S   -0.113395   0.071913   0.000410   0.045597  -0.041557
   14  C  4  X    0.009922  -0.053169   0.167841  -0.002425  -0.035080
   15  C  4  Y    0.006908  -0.102354   0.163467   0.116664  -0.171507
   16  C  4  Z   -0.011733   0.096121   0.261677  -0.165925   0.027671
   17  C  5  S   -0.027004  -0.009078   0.000247  -0.000729   0.002395
   18  C  5  S    0.083542   0.028362  -0.000755   0.004247  -0.009233
   19  C  5  X    0.041736  -0.000388   0.128798  -0.055179  -0.107225
   20  C  5  Y   -0.015717  -0.068219   0.130110   0.230211  -0.341799
   21  C  5  Z   -0.017042   0.041824   0.205743  -0.274049   0.061294
   22  H  6  S    0.417795  -0.069890   0.002999  -0.035003   0.022579
   23  O  7  S    0.016796   0.020554   0.000237   0.003627   0.001516
   24  O  7  S   -0.077612  -0.104433  -0.000332  -0.013083  -0.008911
   25  O  7  X   -0.325330  -0.221826   0.065100   0.305271   0.277024
   26  O  7  Y   -0.407785   0.323907   0.019894   0.159264   0.088811
   27  O  7  Z    0.313158   0.108823   0.107869   0.457443   0.494910
   28  H  8  S   -0.169507   0.289820  -0.002779   0.046617  -0.010073
   29  H  9  S   -0.008678  -0.193462  -0.193712  -0.122205   0.029465
   30  H 10  S   -0.012797  -0.189366   0.199485  -0.027994   0.180464
   31  H 11  S   -0.044097   0.084352   0.225921  -0.111079  -0.007904
   32  H 12  S   -0.042795   0.082984  -0.231267  -0.010127   0.093854
   33  H 13  S    0.038768  -0.018486  -0.184574   0.220551  -0.023798
   34  H 14  S    0.038348  -0.017830   0.187306   0.038224  -0.251113
   35  H 15  S    0.038123   0.063844  -0.004999  -0.289059   0.273234

                     16         17         18         19         20
                   -0.4817    -0.4440    -0.4234    -0.4175    -0.3061
                     A          A          A          A          A   
    1  O  1  S   -0.003205   0.034954   0.012483   0.000517   0.080858
    2  O  1  S    0.019746  -0.163519  -0.067021  -0.001250  -0.429014
    3  O  1  X   -0.090294  -0.002474   0.107445  -0.077072   0.518123
    4  O  1  Y   -0.030789  -0.079291   0.174474  -0.053007   0.346924
    5  O  1  Z   -0.056852   0.081623  -0.149388  -0.101891  -0.361994
    6  H  2  S   -0.016057  -0.008484   0.058123  -0.000674   0.189858
    7  C  3  S    0.000410  -0.032376   0.025826   0.000949  -0.031229
    8  C  3  S   -0.003970   0.111109  -0.099080  -0.004974   0.142082
    9  C  3  X   -0.131825  -0.031087  -0.040961  -0.097160  -0.316135
   10  C  3  Y   -0.153228  -0.153350   0.344686  -0.089233  -0.029748
   11  C  3  Z   -0.296931   0.097281  -0.169106  -0.184591   0.176691
   12  C  4  S   -0.000179   0.017747   0.007242   0.001073  -0.017804
   13  C  4  S    0.000597  -0.070593  -0.037615  -0.005026   0.078322
   14  C  4  X    0.020348  -0.446287  -0.137442   0.177132   0.029364
   15  C  4  Y   -0.023664   0.206246  -0.319150   0.182338   0.136923
   16  C  4  Z   -0.018830   0.129059   0.241820   0.345052  -0.091672
   17  C  5  S    0.000217   0.018612   0.007219   0.001664  -0.008736
   18  C  5  S   -0.000131  -0.078708  -0.031404  -0.006863   0.034911
   19  C  5  X    0.140297   0.458353   0.133008  -0.102112  -0.036176
   20  C  5  Y    0.147326  -0.193663   0.216603  -0.120181   0.008308
   21  C  5  Z    0.300575  -0.137309  -0.187058  -0.219655   0.020643
   22  H  6  S   -0.007723  -0.031001   0.060733  -0.002367   0.108640
   23  O  7  S    0.003793  -0.025944   0.013902   0.001297  -0.014276
   24  O  7  S   -0.018947   0.140852  -0.083460  -0.007173   0.052644
   25  O  7  X    0.226332   0.198028  -0.100065   0.061740  -0.002562
   26  O  7  Y    0.109733  -0.043231  -0.006873   0.030913  -0.107614
   27  O  7  Z    0.383708  -0.027677   0.112757   0.104809   0.157821
   28  H  8  S    0.027972  -0.098674   0.013853   0.009816  -0.164846
   29  H  9  S    0.284955  -0.014099   0.098515   0.214564  -0.146511
   30  H 10  S   -0.240351  -0.031625   0.114396  -0.191053  -0.226168
   31  H 11  S   -0.018734   0.097318   0.194701   0.385608  -0.064616
   32  H 12  S    0.005970   0.128647   0.240419  -0.349026  -0.083963
   33  H 13  S   -0.292737   0.099347   0.159661   0.259273  -0.017671
   34  H 14  S    0.246544   0.139315   0.194236  -0.232400  -0.017426
   35  H 15  S    0.019191   0.174809  -0.273731  -0.006930   0.008773

                     21         22         23         24         25
                   -0.2497    -0.2208     0.5153     0.6350     0.6635
                     A          A          A          A          A   
    1  O  1  S    0.006353  -0.051633  -0.057355  -0.039513  -0.000065
    2  O  1  S   -0.030274   0.262350   0.362302   0.211507   0.000595
    3  O  1  X    0.437897  -0.050654   0.036103   0.334298  -0.029588
    4  O  1  Y    0.138659   0.641716   0.126702  -0.216205  -0.029486
    5  O  1  Z    0.761124   0.118879  -0.122432  -0.083793  -0.049138
    6  H  2  S   -0.107109   0.189900  -0.293112   0.197174  -0.001314
    7  C  3  S   -0.007796   0.033858   0.016845   0.034224  -0.000004
    8  C  3  S    0.037362  -0.157188  -0.072319  -0.150378   0.000032
    9  C  3  X   -0.141736   0.292121   0.184654   0.421867   0.201145
   10  C  3  Y    0.028818  -0.207287  -0.036839  -0.114187   0.194029
   11  C  3  Z   -0.083414  -0.107930  -0.101148  -0.198198   0.321777
   12  C  4  S    0.011190  -0.021425  -0.006927   0.002335   0.000274
   13  C  4  S   -0.045886   0.086979   0.033049  -0.028352  -0.001734
   14  C  4  X    0.048828  -0.090082   0.051078   0.281761   0.322392
   15  C  4  Y   -0.091724   0.184135   0.013059  -0.028112   0.310108
   16  C  4  Z    0.042713  -0.050983  -0.041618  -0.157080   0.513631
   17  C  5  S   -0.006365   0.016987   0.012721   0.038292   0.000051
   18  C  5  S    0.026840  -0.072118  -0.069702  -0.219067  -0.000349
   19  C  5  X   -0.041451   0.117306   0.070667   0.240649   0.281374
   20  C  5  Y    0.042682  -0.072784  -0.004702   0.035935   0.271690
   21  C  5  Z    0.021967  -0.020654  -0.042485  -0.171022   0.449703
   22  H  6  S   -0.035793   0.070872  -0.895948   0.640158  -0.005284
   23  O  7  S   -0.035209   0.088629  -0.136307  -0.000987  -0.000796
   24  O  7  S    0.205346  -0.504319   0.916721  -0.006388   0.005173
   25  O  7  X    0.035130  -0.479363  -0.460066  -0.015066   0.002581
   26  O  7  Y   -0.088540   0.066559  -0.025975   0.712085   0.001016
   27  O  7  Z   -0.282422   0.066142   0.287243  -0.129262   0.006950
   28  H  8  S   -0.120644   0.288386  -0.595850  -0.693110  -0.001864
   29  H  9  S    0.243900   0.087593  -0.042601  -0.097681   0.361200
   30  H 10  S   -0.197743  -0.089023  -0.028476  -0.092170  -0.362341
   31  H 11  S    0.039360   0.022633   0.039762   0.180631  -0.609005
   32  H 12  S   -0.031321  -0.000817   0.036552   0.181793   0.612861
   33  H 13  S   -0.000640  -0.010293  -0.011550  -0.064084   0.508274
   34  H 14  S    0.009765  -0.005507  -0.010304  -0.065223  -0.509875
   35  H 15  S   -0.041334   0.087915   0.043168   0.168939   0.001759

                     26         27         28         29         30
                    0.6829     0.6943     0.7398     0.7681     0.7928
                     A          A          A          A          A   
    1  O  1  S    0.001683  -0.008466   0.012198  -0.000151  -0.010165
    2  O  1  S    0.003734   0.070717  -0.079545   0.000969   0.082337
    3  O  1  X   -0.019730   0.133001  -0.240622   0.052511  -0.057422
    4  O  1  Y   -0.032121  -0.027073   0.054448   0.052999   0.038456
    5  O  1  Z    0.032276  -0.066094   0.118242   0.085410   0.011632
    6  H  2  S   -0.154823  -0.198574   0.033838  -0.002194  -0.201170
    7  C  3  S    0.029401  -0.087742   0.001733  -0.000318  -0.119045
    8  C  3  S   -0.154640   0.549262  -0.019234   0.002139   0.771741
    9  C  3  X   -0.089195   0.263484  -0.165838  -0.346353   0.364616
   10  C  3  Y    0.576466  -0.054048   0.444961  -0.333615   0.432242
   11  C  3  Z   -0.291208  -0.130399  -0.165200  -0.557742  -0.484141
   12  C  4  S   -0.002148  -0.048540  -0.128394   0.000046  -0.031711
   13  C  4  S   -0.010779   0.287327   0.804524  -0.000293   0.210073
   14  C  4  X    0.047736   0.611195  -0.272683  -0.106150  -0.346456
   15  C  4  Y    0.545950  -0.405805   0.138350  -0.101490   0.102012
   16  C  4  Z   -0.359421  -0.138683   0.087269  -0.168698   0.157302
   17  C  5  S   -0.009352   0.028682  -0.143300   0.000531   0.064178
   18  C  5  S    0.052949  -0.142547   0.915173  -0.003445  -0.419048
   19  C  5  X    0.071380   0.692855   0.377878   0.379341  -0.400802
   20  C  5  Y    0.570686  -0.338402  -0.204936   0.366845  -0.059253
   21  C  5  Z   -0.388965  -0.229749  -0.109373   0.612926   0.281928
   22  H  6  S   -0.083909  -0.142938   0.121246   0.003849   0.098441
   23  O  7  S    0.001219   0.007122  -0.003771   0.000797  -0.004301
   24  O  7  S   -0.007177  -0.051495   0.034964  -0.005025   0.036475
   25  O  7  X    0.114584   0.198127  -0.102113  -0.003805   0.084294
   26  O  7  Y   -0.200064  -0.398437   0.294552  -0.005169   0.076230
   27  O  7  Z   -0.030336  -0.030193  -0.017180  -0.010761  -0.080947
   28  H  8  S    0.234926   0.453419  -0.292572   0.004903  -0.029847
   29  H  9  S   -0.159381  -0.357708  -0.082245  -0.585660  -0.695281
   30  H 10  S   -0.158381  -0.359795  -0.080185   0.582707  -0.698507
   31  H 11  S    0.318357   0.034396  -0.417875   0.164779  -0.207808
   32  H 12  S    0.315267   0.033411  -0.417290  -0.165254  -0.205052
   33  H 13  S   -0.365599  -0.130826  -0.472367   0.624921   0.429185
   34  H 14  S   -0.362872  -0.129796  -0.476326  -0.619798   0.433107
   35  H 15  S    0.657421  -0.273891  -0.566831   0.001240   0.087860

                     31         32         33         34         35
                    0.8009     0.8084     0.8632     0.8647     0.9698
                     A          A          A          A          A   
    1  O  1  S   -0.009442  -0.001810  -0.000111   0.062889   0.068716
    2  O  1  S    0.062240   0.007951   0.000833  -0.406510  -0.520898
    3  O  1  X    0.134939   0.032681   0.053195  -0.669426   0.111187
    4  O  1  Y   -0.013663  -0.025437   0.058628   0.286800  -0.638366
    5  O  1  Z   -0.076396  -0.005546   0.090646   0.250226   0.319761
    6  H  2  S    0.027375   0.023204  -0.004506   0.137340   1.360812
    7  C  3  S   -0.092602   0.041426  -0.000278  -0.163968  -0.009564
    8  C  3  S    0.593131  -0.249800   0.001515   0.951263   0.073578
    9  C  3  X    0.400221  -0.083111  -0.360780  -0.466067   0.123945
   10  C  3  Y   -0.454828  -0.032887  -0.345427   0.002484   0.093112
   11  C  3  Z    0.022979   0.074654  -0.572184   0.291357  -0.139686
   12  C  4  S    0.106985  -0.169592  -0.000198   0.060337  -0.007496
   13  C  4  S   -0.631456   1.069427   0.001259  -0.380398   0.054964
   14  C  4  X   -0.402989  -0.022837   0.417617   0.376563   0.007441
   15  C  4  Y   -0.419644  -0.417073   0.398477  -0.325406   0.029740
   16  C  4  Z    0.502666   0.262343   0.668718  -0.043307  -0.018483
   17  C  5  S   -0.131593   0.130774   0.000258   0.041878   0.007939
   18  C  5  S    0.832594  -0.822957  -0.001629  -0.275172  -0.051154
   19  C  5  X   -0.165511   0.169449  -0.232551   0.093009   0.001340
   20  C  5  Y    0.547066   0.413244  -0.223303   0.176681  -0.025652
   21  C  5  Z   -0.224636  -0.351801  -0.376013  -0.161933   0.013358
   22  H  6  S   -0.020766  -0.007133   0.003487   0.051382  -0.369498
   23  O  7  S    0.001679   0.001086   0.000549   0.006843   0.035093
   24  O  7  S   -0.016347  -0.009140  -0.003192  -0.024558  -0.291158
   25  O  7  X    0.018729   0.000758  -0.004318  -0.236037  -0.470296
   26  O  7  Y   -0.072486  -0.020671  -0.003143   0.349295  -0.215407
   27  O  7  Z    0.012644   0.006951  -0.010651   0.035554   0.401122
   28  H  8  S    0.064790   0.017231   0.002567  -0.324397   0.009770
   29  H  9  S   -0.218866   0.173879  -0.491285  -0.226362  -0.160669
   30  H 10  S   -0.218456   0.170671   0.493450  -0.228927  -0.154449
   31  H 11  S   -0.078600  -0.645536  -0.577923   0.186869  -0.007133
   32  H 12  S   -0.078884  -0.647060   0.575581   0.183051  -0.003189
   33  H 13  S   -0.488482   0.086893  -0.303979   0.004934   0.032231
   34  H 14  S   -0.488813   0.085191   0.303229   0.003042   0.033069
   35  H 15  S    0.172283   0.763106   0.001969   0.260654  -0.002646
 ...... END OF RHF CALCULATION ......
 STEP CPU TIME =     0.03 TOTAL CPU TIME =          0.1 (      0.0 MIN)
 TOTAL WALL CLOCK TIME=          0.1 SECONDS, CPU UTILIZATION IS    87.50%

     ----------------------------------------------------------------
     PROPERTY VALUES FOR THE RHF   SELF-CONSISTENT FIELD WAVEFUNCTION
     ----------------------------------------------------------------

          -----------------
          ENERGY COMPONENTS
          -----------------

         WAVEFUNCTION NORMALIZATION =       1.0000000000

                ONE ELECTRON ENERGY =    -769.3458126977
                TWO ELECTRON ENERGY =     300.5527631899
           NUCLEAR REPULSION ENERGY =     203.4415300859
                                      ------------------
                       TOTAL ENERGY =    -265.3515194220

 ELECTRON-ELECTRON POTENTIAL ENERGY =     300.5527631899
  NUCLEUS-ELECTRON POTENTIAL ENERGY =   -1034.6193683438
   NUCLEUS-NUCLEUS POTENTIAL ENERGY =     203.4415300859
                                      ------------------
             TOTAL POTENTIAL ENERGY =    -530.6250750680
               TOTAL KINETIC ENERGY =     265.2735556461
                 VIRIAL RATIO (V/T) =       2.0002938995

          ---------------------------------------
          MULLIKEN AND LOWDIN POPULATION ANALYSES
          ---------------------------------------

     ATOMIC MULLIKEN POPULATION IN EACH MOLECULAR ORBITAL

                      1          2          3          4          5

                  2.000000   2.000000   2.000000   2.000000   2.000000

    1            -0.000028   2.001308   0.000000  -0.000001  -0.000368
    2            -0.000510  -0.000731   0.000000   0.000000  -0.000017
    3             0.000000  -0.000547   0.000024   0.001003   2.001357
    4             0.000000   0.000002  -0.000023   2.001000   0.000999
    5            -0.000000  -0.000000   2.002922  -0.000038   0.000032
    6            -0.000633  -0.000011   0.000000   0.000000  -0.000000
    7             2.001802  -0.000028   0.000000  -0.000000   0.000000
    8            -0.000631   0.000000   0.000000   0.000000   0.000000
    9             0.000000   0.000003   0.000000   0.000002  -0.000997
   10             0.000000   0.000003   0.000000   0.000002  -0.000998
   11             0.000000  -0.000000   0.000002  -0.000982  -0.000004
   12             0.000000  -0.000000   0.000002  -0.000982  -0.000004
   13            -0.000000  -0.000000  -0.000976  -0.000001  -0.000000
   14            -0.000000  -0.000000  -0.000976  -0.000001  -0.000000
   15             0.000000  -0.000000  -0.000976  -0.000001  -0.000000

                      6          7          8          9         10

                  2.000000   2.000000   2.000000   2.000000   2.000000

    1             0.321976   1.098046   0.053162   0.150604   0.093757
    2             0.155958   0.077994   0.015534   0.058029   0.004139
    3             0.013057   0.249910   0.233444   0.471449   0.201701
    4             0.000356   0.024659   0.676922   0.141637   0.488102
    5             0.000005   0.001996   0.557238   0.464742   0.274232
    6             0.106960   0.032037   0.001949   0.005569   0.019476
    7             1.323443   0.404082   0.038689   0.196423   0.203620
    8             0.077673   0.082475   0.011148   0.057544   0.097067
    9             0.000268   0.012469   0.025169   0.082134   0.046696
   10             0.000269   0.012353   0.025128   0.081865   0.047507
   11             0.000017   0.001804   0.079215   0.003151   0.158829
   12             0.000017   0.001819   0.079438   0.003181   0.159975
   13             0.000000   0.000141   0.069662   0.086469   0.078167
   14             0.000000   0.000141   0.069605   0.086435   0.078258
   15             0.000000   0.000074   0.063696   0.110769   0.048475

                     11         12         13         14         15

                  2.000000   2.000000   2.000000   2.000000   2.000000

    1             0.145388   0.329934   0.073795   0.147645   0.131233
    2             0.147955   0.044017   0.000117   0.004897  -0.000058
    3             0.011446   0.463195   0.334207   0.133234   0.157439
    4             0.029647   0.108662   0.465823   0.140965   0.106138
    5             0.026127   0.030747   0.282079   0.432725   0.428803
    6             0.474916   0.010450   0.000018   0.002271   0.001012
    7             1.047519   0.439908   0.035659   0.677165   0.674488
    8             0.079915   0.209087   0.000016   0.004505   0.000165
    9             0.000452   0.148814   0.121501   0.041883   0.002716
   10             0.000898   0.142928   0.129096   0.002388   0.090943
   11             0.008547   0.027326   0.164500   0.036920   0.000104
   12             0.008034   0.026413   0.172259   0.000414   0.025865
   13             0.006518   0.001475   0.108791   0.135480   0.001491
   14             0.006368   0.001375   0.112061   0.003952   0.172869
   15             0.006269   0.015668   0.000079   0.235555   0.206794

                     16         17         18         19         20

                  2.000000   2.000000   2.000000   2.000000   2.000000

    1             0.033418   0.050893   0.159935   0.045184   1.262523
    2             0.000420   0.000142   0.007164  -0.000001   0.050640
    3             0.402999   0.120552   0.414723   0.137579   0.319973
    4             0.004142   0.740421   0.482292   0.495729   0.067441
    5             0.399777   0.751281   0.270366   0.194563   0.004929
    6             0.000079   0.002178   0.006869   0.000006   0.016094
    7             0.416234   0.091044   0.044687   0.029209   0.064294
    8             0.001609   0.019163   0.000484   0.000186   0.042979
    9             0.212752   0.000451   0.024737   0.107596   0.044000
   10             0.150688   0.002398   0.032985   0.084680   0.103462
   11             0.000943   0.025172   0.093450   0.345711   0.008343
   12             0.000090   0.043085   0.141058   0.281339   0.013770
   13             0.220164   0.026006   0.060653   0.154608   0.000725
   14             0.155753   0.049798   0.089344   0.123512   0.000721
   15             0.000933   0.077417   0.171253   0.000100   0.000106

                     21         22

                  2.000000   2.000000

    1             1.506099   0.852053
    2             0.015751   0.048227
    3             0.070038   0.298329
    4             0.028496   0.096823
    5             0.009065   0.043433
    6             0.002714   0.010807
    7             0.158443   0.474270
    8             0.024633   0.134943
    9             0.107281   0.013239
   10             0.070290   0.013587
   11             0.002459   0.000851
   12             0.001555  -0.000002
   13             0.000000   0.000120
   14             0.000131   0.000030
   15             0.003046   0.013290

               ----- POPULATIONS IN EACH AO -----
                             MULLIKEN      LOWDIN
              1  O  1  S      1.99814     1.99676
              2  O  1  S      1.84952     1.74760
              3  O  1  X      1.30103     1.32418
              4  O  1  Y      1.51674     1.53346
              5  O  1  Z      1.79112     1.80257
              6  H  2  S      0.62967     0.72233
              7  C  3  S      1.99234     1.98498
              8  C  3  S      1.17592     1.04603
              9  C  3  X      0.95991     0.98956
             10  C  3  Y      0.94333     0.98202
             11  C  3  Z      0.96361     0.99552
             12  C  4  S      1.99202     1.98510
             13  C  4  S      1.17445     1.02323
             14  C  4  X      0.95326     0.98956
             15  C  4  Y      0.98934     1.02282
             16  C  4  Z      0.99117     1.01910
             17  C  5  S      1.99204     1.98539
             18  C  5  S      1.18332     1.01515
             19  C  5  X      0.99071     1.02420
             20  C  5  Y      1.00357     1.03053
             21  C  5  Z      1.00538     1.03238
             22  H  6  S      0.69276     0.76492
             23  O  7  S      1.99745     1.99554
             24  O  7  S      1.78647     1.61228
             25  O  7  X      1.57270     1.56756
             26  O  7  Y      1.16420     1.17225
             27  O  7  Z      1.80013     1.80022
             28  H  8  S      0.84296     0.89541
             29  H  9  S      0.99117     1.01638
             30  H 10  S      0.99047     1.01591
             31  H 11  S      0.95636     0.98504
             32  H 12  S      0.95732     0.98579
             33  H 13  S      0.94949     0.97791
             34  H 14  S      0.94938     0.97781
             35  H 15  S      0.95255     0.98053

          ----- MULLIKEN ATOMIC OVERLAP POPULATIONS -----
          (OFF-DIAGONAL ELEMENTS NEED TO BE MULTIPLIED BY 2)

             1           2           3           4           5

    1    8.3288134
    2    0.2395546   0.4347103
    3    0.2159150  -0.0238855   4.8005659
    4   -0.0171990   0.0018449   0.3559030   4.7469339
    5    0.0002506  -0.0000252  -0.0243267   0.3597618   4.7376668
    6   -0.0076270  -0.0164820   0.0003991   0.0000572  -0.0000003
    7   -0.2849590  -0.0004327   0.0101407  -0.0000836   0.0000002
    8    0.0169736   0.0000745  -0.0013493   0.0000093  -0.0000001
    9   -0.0167601  -0.0029033   0.3743361  -0.0253444  -0.0022948
   10   -0.0173348  -0.0028189   0.3757894  -0.0255605  -0.0022229
   11   -0.0005259   0.0000153  -0.0221907   0.3840897  -0.0229471
   12   -0.0005489   0.0000164  -0.0222415   0.3840267  -0.0229698
   13    0.0000043  -0.0000010  -0.0026659  -0.0215333   0.3845910
   14    0.0000043  -0.0000010  -0.0026652  -0.0215176   0.3845858
   15   -0.0000049   0.0000006   0.0013860  -0.0211561   0.3829527

             6           7           8           9          10

    6    0.4602547
    7    0.2877027   8.1075556
    8   -0.0314696   0.2007732   0.6578861
    9   -0.0000404   0.0001077   0.0000209   0.6927043
   10   -0.0000322   0.0001676   0.0000397  -0.0284382   0.6911449
   11   -0.0000010  -0.0000112   0.0000019   0.0019416  -0.0025196
   12    0.0000002  -0.0000101   0.0000014  -0.0024847   0.0019326
   13   -0.0000000   0.0000000  -0.0000000   0.0003011   0.0000144
   14   -0.0000000   0.0000000  -0.0000000   0.0000127   0.0003062
   15    0.0000000  -0.0000000   0.0000000   0.0000092   0.0000066

            11          12          13          14          15

   11    0.6438749
   12   -0.0227580   0.6449729
   13    0.0019401  -0.0023769   0.6321732
   14   -0.0023755   0.0019408  -0.0214314   0.6320295
   15   -0.0021769  -0.0021764  -0.0215238  -0.0215130   0.6367426

          TOTAL MULLIKEN AND LOWDIN ATOMIC POPULATIONS
       ATOM         MULL.POP.    CHARGE          LOW.POP.     CHARGE
    1 O             8.456556   -0.456556         8.404575   -0.404575
    2 H             0.629667    0.370333         0.722327    0.277673
    3 C             6.035110   -0.035110         5.998103    0.001897
    4 C             6.100232   -0.100232         6.039805   -0.039805
    5 C             6.175022   -0.175022         6.087650   -0.087650
    6 H             0.692761    0.307239         0.764916    0.235084
    7 O             8.320951   -0.320951         8.147843   -0.147843
    8 H             0.842961    0.157039         0.895413    0.104587
    9 H             0.991168    0.008832         1.016383   -0.016383
   10 H             0.990474    0.009526         1.015908   -0.015908
   11 H             0.956358    0.043642         0.985041    0.014959
   12 H             0.957325    0.042675         0.985786    0.014214
   13 H             0.949492    0.050508         0.977910    0.022090
   14 H             0.949376    0.050624         0.977813    0.022187
   15 H             0.952547    0.047453         0.980527    0.019473

          -------------------------------
          BOND ORDER AND VALENCE ANALYSIS     BOND ORDER THRESHOLD=0.050
          -------------------------------

                   BOND                       BOND                       BOND
  ATOM PAIR DIST  ORDER      ATOM PAIR DIST  ORDER      ATOM PAIR DIST  ORDER
    1   2  0.967  0.631        1   3  1.429  0.990        1   7  1.530  0.103
    2   7  1.010  0.213        3   4  1.530  0.985        3   9  1.090  0.966
    3  10  1.090  0.966        4   5  1.530  1.000        4  11  1.090  0.977
    4  12  1.090  0.977        5  13  1.090  0.984        5  14  1.090  0.984
    5  15  1.090  0.984        6   7  0.967  0.877        7   8  0.967  0.907

                       TOTAL       BONDED        FREE
      ATOM            VALENCE     VALENCE     VALENCE
    1 O                 1.820       1.820       0.000
    2 H                 0.863       0.863       0.000
    3 C                 3.969       3.969       0.000
    4 C                 3.968       3.968      -0.000
    5 C                 3.969       3.969       0.000
    6 H                 0.906       0.906      -0.000
    7 O                 2.121       2.121      -0.000
    8 H                 0.975       0.975      -0.000
    9 H                 1.000       1.000      -0.000
   10 H                 1.000       1.000       0.000
   11 H                 0.998       0.998      -0.000
   12 H                 0.998       0.998      -0.000
   13 H                 0.997       0.997       0.000
   14 H                 0.997       0.997      -0.000
   15 H                 0.998       0.998      -0.000

          ---------------------
          ELECTROSTATIC MOMENTS
          ---------------------

 POINT   1           X           Y           Z (BOHR)    CHARGE
                -6.339557    0.850950    0.181690        0.00 (A.U.)
         DX          DY          DZ         /D/  (DEBYE)
    -2.862653    2.241894    0.393305    3.657261
 ...... END OF PROPERTY EVALUATION ......
 STEP CPU TIME =     0.01 TOTAL CPU TIME =          0.1 (      0.0 MIN)
 TOTAL WALL CLOCK TIME=          0.1 SECONDS, CPU UTILIZATION IS   100.00%

 BEGINNING ONE ELECTRON GRADIENT...
 ..... END OF 1-ELECTRON GRADIENT ......
 STEP CPU TIME =     0.01 TOTAL CPU TIME =          0.1 (      0.0 MIN)
 TOTAL WALL CLOCK TIME=          0.1 SECONDS, CPU UTILIZATION IS   100.00%

          ----------------------
          GRADIENT OF THE ENERGY
          ----------------------
 THE COARSE/FINE SCHWARZ SCREENINGS SKIPPED         4126/        2512 BLOCKS.
 THE NUMBER OF GRADIENT INTEGRAL BLOCKS COMPUTED WAS     15477
 ...... END OF 2-ELECTRON GRADIENT ......
 STEP CPU TIME =     0.06 TOTAL CPU TIME =          0.2 (      0.0 MIN)
 TOTAL WALL CLOCK TIME=          0.2 SECONDS, CPU UTILIZATION IS   100.00%

          NSERCH=  0     ENERGY=    -265.3515194

                                 -----------------------
                                 GRADIENT (HARTREE/BOHR)
                                 -----------------------
        ATOM     ZNUC       DE/DX         DE/DY         DE/DZ
 --------------------------------------------------------------
    1  O            8.0    -0.3520994     0.3051264     0.0582119
    2  H            1.0    -0.1487025     0.0444448     0.0848842
    3  C            6.0     0.0163812     0.0160922    -0.0128744
    4  C            6.0    -0.0107758     0.0032804     0.0047019
    5  C            6.0    -0.0027877     0.0100434    -0.0043520
    6  H            1.0     0.0144829    -0.0118226    -0.0028397
    7  O            8.0     0.4507984    -0.3400342    -0.1217781
    8  H            1.0     0.0595900    -0.0319900    -0.0196346
    9  H            1.0    -0.0102242     0.0011110     0.0074837
   10  H            1.0    -0.0100647    -0.0007763     0.0047647
   11  H            1.0     0.0036424     0.0021800     0.0020330
   12  H            1.0    -0.0004476    -0.0016284    -0.0043784
   13  H            1.0    -0.0044758     0.0010355    -0.0041750
   14  H            1.0     0.0001069     0.0054154     0.0030928
   15  H            1.0    -0.0054241    -0.0024775     0.0048601

          MAXIMUM GRADIENT = 0.4507984    RMS GRADIENT = 0.1147155

 NSERCH:   0  E=     -265.3515194220  GRAD. MAX=  0.4507984  R.M.S.=  0.1147155

          FORCE CONSTANT MATRIX NOT UPDATED --- TAKING FIRST STEP
          MIN SEARCH, CORRECT HESSIAN, TRYING PURE NR STEP
               NR STEP HAS LENGTH         =  14.674817
          TRIM/QA LAMBDA FOR NON-TS MODES =  -1.58909403
          TRIM/QA STEP HAS LENGTH         =   0.300000
          RADIUS OF STEP TAKEN=   0.30000  CURRENT TRUST RADIUS=   0.30000

 BEGINNING GEOMETRY SEARCH POINT NSERCH=   1 ...

 COORDINATES OF ALL ATOMS ARE (ANGS)
   ATOM   CHARGE       X              Y              Z
 ------------------------------------------------------------
 O           8.0  -4.0880994086   1.0165569707   0.1898494739
 H           1.0  -4.3838873923   1.9197482905  -0.1656987522
 C           6.0  -2.8957663432   0.5819164554  -0.2890033647
 C           6.0  -2.5991230056  -0.7747811730   0.3417180431
 C           6.0  -1.2617974251  -1.2943475816  -0.1804846740
 H           1.0  -5.7480947870   1.4231028260   0.8165085425
 O           8.0  -5.3623693633   2.1876439827   0.3664803422
 H           1.0  -5.6988730654   3.0137906946   0.4247440502
 H           1.0  -2.9486460221   0.4858634907  -1.3745281364
 H           1.0  -2.1093773787   1.2940262908  -0.0269827578
 H           1.0  -2.5553379510  -0.6685483179   1.4259040288
 H           1.0  -3.3934917404  -1.4749422874   0.0816902162
 H           1.0  -1.3109237754  -1.3953987028  -1.2642454755
 H           1.0  -0.4729209498  -0.5892224332   0.0797079415
 H           1.0  -1.0475813921  -2.2612585055   0.2659305222

          INTERNUCLEAR DISTANCES (ANGS.)
          ------------------------------

                1 O          2 H          3 C          4 C          5 C     

   1 O       0.0000000    1.0147215 *  1.3564183 *  2.3343108 *  3.6695245  
   2 H       1.0147215 *  0.0000000    2.0048696 *  3.2715967    4.4808567  
   3 C       1.3564183 *  2.0048696 *  0.0000000    1.5252656 *  2.4903810 *
   4 C       2.3343108 *  3.2715967    1.5252656 *  0.0000000    1.5267890 *
   5 C       3.6695245    4.4808567    2.4903810 *  1.5267890 *  0.0000000  
   6 H       1.8203202 *  1.7528405 *  3.1726217    3.8693854    5.3390445  
   7 O       1.7396572 *  1.1456045 *  3.0153193    4.0511858    5.4072291  
   8 H       2.5765694 *  1.8096239 *  3.7790019    4.8957758    6.2140162  
   9 H       2.0068051 *  2.3616121 *  1.0910483 *  2.1579834 *  2.7277004 *
  10 H       2.0098125 *  2.3630840 *  1.0927776 *  2.1577199 *  2.7279358 *
  11 H       2.5916729 *  3.5462758    2.1495258 *  1.0902577 *  2.1553089 *
  12 H       2.5887732 *  3.5448567    2.1484441 *  1.0903494 *  2.1553354 *
  13 H       3.9553289    4.6518932    2.7152529 *  2.1502889 *  1.0895697 *
  14 H       3.9572938    4.6530438    2.7161911 *  2.1503061 *  1.0895998 *
  15 H       4.4715336    5.3663823    3.4361873    2.1500326 *  1.0863203 *

                6 H          7 O          8 H          9 H         10 H     

   1 O       1.8203202 *  1.7396572 *  2.5765694 *  2.0068051 *  2.0098125 *
   2 H       1.7528405 *  1.1456045 *  1.8096239 *  2.3616121 *  2.3630840 *
   3 C       3.1726217    3.0153193    3.7790019    1.0910483 *  1.0927776 *
   4 C       3.8693854    4.0511858    4.8957758    2.1579834 *  2.1577199 *
   5 C       5.3390445    5.4072291    6.2140162    2.7277004 *  2.7279358 *
   6 H       0.0000000    0.9673844 *  1.6389601 *  3.6764076    3.7374326  
   7 O       0.9673844 *  0.0000000    0.8939507 *  3.4282981    3.3963690  
   8 H       1.6389601 *  0.8939507 *  0.0000000    4.1462688    4.0057616  
   9 H       3.6764076    3.4282981    4.1462688    0.0000000    1.7813976 *
  10 H       3.7374326    3.3963690    4.0057616    1.7813976 *  0.0000000  
  11 H       3.8652378    4.1424194    4.9440626    3.0544686    2.4822288 *
  12 H       3.8056246    4.1679878    5.0577854    2.4825831 *  3.0541687  
  13 H       5.6534923    5.6490418    6.4457533    2.4966866 *  3.0661627  
  14 H       5.6938376    5.6302692    6.3569906    3.0659137    2.4971981 *
  15 H       5.9977063    6.1984062    7.0346201    3.7218048    3.7219966  

               11 H         12 H         13 H         14 H         15 H     

   1 O       2.5916729 *  2.5887732 *  3.9553289    3.9572938    4.4715336  
   2 H       3.5462758    3.5448567    4.6518932    4.6530438    5.3663823  
   3 C       2.1495258 *  2.1484441 *  2.7152529 *  2.7161911 *  3.4361873  
   4 C       1.0902577 *  1.0903494 *  2.1502889 *  2.1503061 *  2.1500326 *
   5 C       2.1553089 *  2.1553354 *  1.0895697 *  1.0895998 *  1.0863203 *
   6 H       3.8652378    3.8056246    5.6534923    5.6938376    5.9977063  
   7 O       4.1424194    4.1679878    5.6490418    5.6302692    6.1984062  
   8 H       4.9440626    5.0577854    6.4457533    6.3569906    7.0346201  
   9 H       3.0544686    2.4825831 *  2.4966866 *  3.0659137    3.7218048  
  10 H       2.4822288 *  3.0541687    3.0661627    2.4971981 *  3.7219966  
  11 H       0.0000000    1.7775499 *  3.0518490    2.4809267 *  2.4810470 *
  12 H       1.7775499 *  0.0000000    2.4809191 *  3.0519235    2.4810347 *
  13 H       3.0518490    2.4809191 *  0.0000000    1.7771831 *  1.7777798 *
  14 H       2.4809267 *  3.0519235    1.7771831 *  0.0000000    1.7778127 *
  15 H       2.4810470 *  2.4810347 *  1.7777798 *  1.7778127 *  0.0000000  

  * ... LESS THAN  3.000

 ...... END OF ONE-ELECTRON INTEGRALS ......
 STEP CPU TIME =     0.00 TOTAL CPU TIME =          0.2 (      0.0 MIN)
 TOTAL WALL CLOCK TIME=          0.2 SECONDS, CPU UTILIZATION IS   100.00%
 TOTAL NUMBER OF NONZERO TWO-ELECTRON INTEGRALS =              166182
         12 INTEGRAL RECORDS WERE STORED ON DISK FILE  8.
  ...... END OF TWO-ELECTRON INTEGRALS .....
 STEP CPU TIME =     0.03 TOTAL CPU TIME =          0.2 (      0.0 MIN)
 TOTAL WALL CLOCK TIME=          0.2 SECONDS, CPU UTILIZATION IS    94.74%

          --------------------------
                 RHF SCF CALCULATION
          --------------------------
     DENSITY MATRIX CONV=  5.00E-04

 ITER EX DEM     TOTAL ENERGY        E CHANGE  DENSITY CHANGE     ORB. GRAD
          ---------------START SECOND ORDER SCF---------------
   1  0  0     -265.4836472408  -265.4836472408   0.084277794   0.037970236
   2  1  0     -265.4971989650    -0.0135517242   0.031738840   0.007513616
   3  2  0     -265.4983241571    -0.0011251920   0.005181057   0.001093378
   4  3  0     -265.4983595423    -0.0000353852   0.001607258   0.000361225
   5  4  0     -265.4983622452    -0.0000027029   0.000214171   0.000055789
   6  5  0     -265.4983623426    -0.0000000975   0.000098020   0.000019602
   7  6  0     -265.4983623534    -0.0000000108   0.000012886   0.000003618

          -----------------
          DENSITY CONVERGED
          -----------------
     TIME TO FORM FOCK OPERATORS=       0.0 SECONDS (       0.0 SEC/ITER)
     TIME TO SOLVE SCF EQUATIONS=       0.0 SECONDS (       0.0 SEC/ITER)

 FINAL RHF ENERGY IS     -265.4983623534 AFTER   7 ITERATIONS
 ...... END OF RHF CALCULATION ......
 STEP CPU TIME =     0.01 TOTAL CPU TIME =          0.2 (      0.0 MIN)
 TOTAL WALL CLOCK TIME=          0.2 SECONDS, CPU UTILIZATION IS    95.00%
 ..... END OF 1-ELECTRON GRADIENT ......
 STEP CPU TIME =     0.02 TOTAL CPU TIME =          0.2 (      0.0 MIN)
 TOTAL WALL CLOCK TIME=          0.2 SECONDS, CPU UTILIZATION IS   100.00%
 ...... END OF 2-ELECTRON GRADIENT ......
 STEP CPU TIME =     0.05 TOTAL CPU TIME =          0.3 (      0.0 MIN)
 TOTAL WALL CLOCK TIME=          0.3 SECONDS, CPU UTILIZATION IS    96.30%

          NSERCH=  1     ENERGY=    -265.4983624

                                 -----------------------
                                 GRADIENT (HARTREE/BOHR)
                                 -----------------------
        ATOM     ZNUC       DE/DX         DE/DY         DE/DZ
 --------------------------------------------------------------
    1  O            8.0    -0.1002481     0.0898001     0.0218129
    2  H            1.0    -0.0713489     0.0742553     0.0081714
    3  C            6.0    -0.0254113     0.0127026     0.0095942
    4  C            6.0    -0.0125396     0.0096520     0.0023810
    5  C            6.0    -0.0036885     0.0076902    -0.0023569
    6  H            1.0     0.0139413    -0.0204026    -0.0065283
    7  O            8.0     0.1402351    -0.0656043    -0.0150419
    8  H            1.0     0.0969875    -0.1198063    -0.0359533
    9  H            1.0    -0.0146308     0.0036601     0.0103681
   10  H            1.0    -0.0150427     0.0015763     0.0063765
   11  H            1.0     0.0032385     0.0015517     0.0026308
   12  H            1.0    -0.0008857    -0.0021358    -0.0038450
   13  H            1.0    -0.0043684     0.0014429    -0.0038900
   14  H            1.0    -0.0002450     0.0053952     0.0026908
   15  H            1.0    -0.0059934     0.0002227     0.0035898

          MAXIMUM GRADIENT = 0.1402351    RMS GRADIENT = 0.0424689

 NSERCH:   1  E=     -265.4983623534  GRAD. MAX=  0.1402351  R.M.S.=  0.0424689

          HESSIAN UPDATED USING THE BFGS FORMULA
             ACTUAL ENERGY CHANGE WAS  -0.1468429314
          PREDICTED ENERGY CHANGE WAS  -0.1850025516 RATIO=  0.794
          MIN SEARCH, CORRECT HESSIAN, TRYING PURE NR STEP
               NR STEP HAS LENGTH         =  16.541377
          TRIM/QA LAMBDA FOR NON-TS MODES =  -0.31120777
          TRIM/QA STEP HAS LENGTH         =   0.424264
          RADIUS OF STEP TAKEN=   0.42426  CURRENT TRUST RADIUS=   0.42426

 BEGINNING GEOMETRY SEARCH POINT NSERCH=   2 ...

 COORDINATES OF ALL ATOMS ARE (ANGS)
   ATOM   CHARGE       X              Y              Z
 ------------------------------------------------------------
 O           8.0  -4.0594076505   0.9657674158   0.1880622480
 H           1.0  -4.3565066356   1.8471518659  -0.1400432850
 C           6.0  -2.8605608801   0.5704036271  -0.3049930946
 C           6.0  -2.5836601510  -0.7865495804   0.3386751850
 C           6.0  -1.2519116013  -1.3061456498  -0.1794362853
 H           1.0  -5.7641487811   1.4653514444   0.8263185842
 O           8.0  -5.4304345180   2.2277096253   0.3269360946
 H           1.0  -5.8065987282   3.1209162938   0.4783277928
 H           1.0  -2.9230556287   0.4786729982  -1.3904262159
 H           1.0  -2.0840189843   1.2899424679  -0.0376509627
 H           1.0  -2.5584584600  -0.6711819927   1.4221561898
 H           1.0  -3.3912402381  -1.4732655259   0.0863167761
 H           1.0  -1.3023981212  -1.3997423451  -1.2619074853
 H           1.0  -0.4680370958  -0.5968746526   0.0764578771
 H           1.0  -1.0358525261  -2.2680059919   0.2627965811

          INTERNUCLEAR DISTANCES (ANGS.)
          ------------------------------

                1 O          2 H          3 C          4 C          5 C     

   1 O       0.0000000    0.9862858 *  1.3552305 *  2.2958941 *  3.6302449  
   2 H       0.9862858 *  0.0000000    1.9736130 *  3.2106914    4.4253076  
   3 C       1.3552305 *  1.9736130 *  0.0000000    1.5271886 *  2.4748645 *
   4 C       2.2958941 *  3.2106914    1.5271886 *  0.0000000    1.5205176 *
   5 C       3.6302449    4.4253076    2.4748645 *  1.5205176 *  0.0000000  
   6 H       1.8876169 *  1.7495952 *  3.2421629    3.9273862    5.3900857  
   7 O       1.8685553 *  1.2313468 *  3.1225387    4.1460850    5.4958712  
   8 H       2.7895515 *  2.0267278 *  3.9746504    5.0670628    6.3856641  
   9 H       2.0050393 *  2.3432827 *  1.0910936 *  2.1692785 *  2.7285155 *
  10 H       2.0144965 *  2.3420433 *  1.0918907 *  2.1686590 *  2.7298680 *
  11 H       2.5407557 *  3.4663309    2.1484519 *  1.0898972 *  2.1622539 *
  12 H       2.5309448 *  3.4652777    2.1474002 *  1.0897014 *  2.1622398 *
  13 H       3.9114128    4.5965726    2.6879419 *  2.1399773 *  1.0876825 *
  14 H       3.9181945    4.5978619    2.6892775 *  2.1402326 *  1.0876610 *
  15 H       4.4277264    5.3031639    3.4217707    2.1438701 *  1.0804752 *

                6 H          7 O          8 H          9 H         10 H     

   1 O       1.8876169 *  1.8685553 *  2.7895515 *  2.0050393 *  2.0144965 *
   2 H       1.7495952 *  1.2313468 *  2.0267278 *  2.3432827 *  2.3420433 *
   3 C       3.2421629    3.1225387    3.9746504    1.0910936 *  1.0918907 *
   4 C       3.9273862    4.1460850    5.0670628    2.1692785 *  2.1686590 *
   5 C       5.3900857    5.4958712    6.3856641    2.7285155 *  2.7298680 *
   6 H       0.0000000    0.9705349 *  1.6922750 *  3.7362150    3.7842525  
   7 O       0.9705349 *  0.0000000    0.9809369 *  3.5064813    3.4943995  
   8 H       1.6922750 *  0.9809369 *  0.0000000    4.3345717    4.1804664  
   9 H       3.7362150    3.5064813    4.3345717    0.0000000    1.7866565 *
  10 H       3.7842525    3.4943995    4.1804664    1.7866565 *  0.0000000  
  11 H       3.8982365    4.2250830    5.0814601    3.0603460    2.4904094 *
  12 H       3.8488657    4.2324258    5.2052028    2.4919933 *  3.0593323  
  13 H       5.6988305    5.7204472    6.6145745    2.4842488 *  3.0568185  
  14 H       5.7327015    5.7154531    6.5179528    3.0554325    2.4868649 *
  15 H       6.0508099    6.2871236    7.2004831    3.7200708    3.7212792  

               11 H         12 H         13 H         14 H         15 H     

   1 O       2.5407557 *  2.5309448 *  3.9114128    3.9181945    4.4277264  
   2 H       3.4663309    3.4652777    4.5965726    4.5978619    5.3031639  
   3 C       2.1484519 *  2.1474002 *  2.6879419 *  2.6892775 *  3.4217707  
   4 C       1.0898972 *  1.0897014 *  2.1399773 *  2.1402326 *  2.1438701 *
   5 C       2.1622539 *  2.1622398 *  1.0876825 *  1.0876610 *  1.0804752 *
   6 H       3.8982365    3.8488657    5.6988305    5.7327015    6.0508099  
   7 O       4.2250830    4.2324258    5.7204472    5.7154531    6.2871236  
   8 H       5.0814601    5.2052028    6.6145745    6.5179528    7.2004831  
   9 H       3.0603460    2.4919933 *  2.4842488 *  3.0554325    3.7200708  
  10 H       2.4904094 *  3.0593323    3.0568185    2.4868649 *  3.7212792  
  11 H       0.0000000    1.7667287 *  3.0516693    2.4872248 *  2.4924467 *
  12 H       1.7667287 *  0.0000000    2.4872426 *  3.0517658    2.4921093 *
  13 H       3.0516693    2.4872426 *  0.0000000    1.7697392 *  1.7747256 *
  14 H       2.4872248 *  3.0517658    1.7697392 *  0.0000000    1.7747722 *
  15 H       2.4924467 *  2.4921093 *  1.7747256 *  1.7747722 *  0.0000000  

  * ... LESS THAN  3.000

 ...... END OF ONE-ELECTRON INTEGRALS ......
 STEP CPU TIME =     0.00 TOTAL CPU TIME =          0.3 (      0.0 MIN)
 TOTAL WALL CLOCK TIME=          0.3 SECONDS, CPU UTILIZATION IS    96.30%
 TOTAL NUMBER OF NONZERO TWO-ELECTRON INTEGRALS =              164089
         11 INTEGRAL RECORDS WERE STORED ON DISK FILE  8.
  ...... END OF TWO-ELECTRON INTEGRALS .....
 STEP CPU TIME =     0.04 TOTAL CPU TIME =          0.3 (      0.0 MIN)
 TOTAL WALL CLOCK TIME=          0.3 SECONDS, CPU UTILIZATION IS    96.77%

          --------------------------
                 RHF SCF CALCULATION
          --------------------------
     DENSITY MATRIX CONV=  2.00E-04

 ITER EX DEM     TOTAL ENERGY        E CHANGE  DENSITY CHANGE     ORB. GRAD
          ---------------START SECOND ORDER SCF---------------
   1  0  0     -265.5691351491  -265.5691351491   0.046232709   0.022516109
   2  1  0     -265.5738289644    -0.0046938153   0.029772383   0.009792317
   3  2  0     -265.5746250061    -0.0007960417   0.004095197   0.001231118
   4  3  0     -265.5746482848    -0.0000232787   0.002110238   0.000514249
   5  4  0     -265.5746523076    -0.0000040228   0.000190655   0.000061483
   6  5  0     -265.5746523798    -0.0000000722   0.000126318   0.000028131
   7  6  0     -265.5746523931    -0.0000000134   0.000017357   0.000006114

          -----------------
          DENSITY CONVERGED
          -----------------
     TIME TO FORM FOCK OPERATORS=       0.0 SECONDS (       0.0 SEC/ITER)
     TIME TO SOLVE SCF EQUATIONS=       0.0 SECONDS (       0.0 SEC/ITER)

 FINAL RHF ENERGY IS     -265.5746523931 AFTER   7 ITERATIONS
 ...... END OF RHF CALCULATION ......
 STEP CPU TIME =     0.01 TOTAL CPU TIME =          0.3 (      0.0 MIN)
 TOTAL WALL CLOCK TIME=          0.3 SECONDS, CPU UTILIZATION IS    96.87%
 ..... END OF 1-ELECTRON GRADIENT ......
 STEP CPU TIME =     0.02 TOTAL CPU TIME =          0.3 (      0.0 MIN)
 TOTAL WALL CLOCK TIME=          0.3 SECONDS, CPU UTILIZATION IS   100.00%
 ...... END OF 2-ELECTRON GRADIENT ......
 STEP CPU TIME =     0.05 TOTAL CPU TIME =          0.4 (      0.0 MIN)
 TOTAL WALL CLOCK TIME=          0.4 SECONDS, CPU UTILIZATION IS    97.44%

          NSERCH=  2     ENERGY=    -265.5746524

                                 -----------------------
                                 GRADIENT (HARTREE/BOHR)
                                 -----------------------
        ATOM     ZNUC       DE/DX         DE/DY         DE/DZ
 --------------------------------------------------------------
    1  O            8.0    -0.0330584     0.0554753    -0.0076807
[...]
                     A          A          A          A          A   
    1  O  1  S    0.020837   0.000121   0.028701  -0.002034   0.068901
    2  O  1  S   -0.125282  -0.000828  -0.172274   0.013503  -0.457494
    3  O  1  X   -0.182648  -0.000117  -0.305958   0.059728   0.195828
    4  O  1  Y   -0.047017  -0.002673   0.013228   0.079619  -0.438602
    5  O  1  Z    0.176595  -0.000626   0.224891   0.081005   0.192762
    6  H  2  S   -0.042462   0.001909  -0.080333  -0.024098   0.777143
    7  C  3  S    0.042064   0.000807  -0.115211  -0.000715   0.030317
    8  C  3  S   -0.252834  -0.004750   0.684693   0.005002  -0.211174
    9  C  3  X   -0.530812  -0.002370  -0.257994  -0.413654  -0.153240
   10  C  3  Y    0.654485   0.002960   0.415265  -0.404016  -0.230541
   11  C  3  Z   -0.088891  -0.000483  -0.113007  -0.545880   0.259691
   12  C  4  S   -0.035631   0.000020  -0.129051  -0.000532  -0.009768
   13  C  4  S    0.195163  -0.000307   0.793618   0.003799   0.044394
   14  C  4  X   -0.405875  -0.002150   0.242981  -0.002787   0.556690
   15  C  4  Y    0.643080   0.004847  -0.105119   0.011524  -0.059522
   16  C  4  Z   -0.175611  -0.001198  -0.108053   0.027101  -0.385195
   17  C  5  S   -0.032144  -0.000108  -0.023395  -0.001597   0.039916
   18  C  5  S    0.186408   0.000573   0.177009   0.009626  -0.230292
   19  C  5  X   -0.223723  -0.001930   0.626519   0.388645   0.406745
   20  C  5  Y    0.464609   0.004498  -0.339700   0.387349   0.193388
   21  C  5  Z   -0.181336  -0.001243  -0.226068   0.527956  -0.426786
   22  H  6  S    0.005954  -0.821610   0.014066   0.005250  -0.140825
   23  O  7  S   -0.000591  -0.000107   0.000475  -0.000005  -0.000966
   24  O  7  S    0.003682   0.000768  -0.005547  -0.000790   0.032702
   25  O  7  X    0.004866  -0.572049   0.017468   0.005092  -0.172472
   26  O  7  Y   -0.001595  -0.507971  -0.020803  -0.006100   0.190054
   27  O  7  Z    0.006637  -0.575170  -0.003616  -0.000593   0.007363
   28  H  8  S   -0.004838   0.819633   0.018921   0.003202  -0.144165
   29  H  9  S   -0.066935   0.001071  -0.445011  -0.620113   0.221201
   30  H 10  S   -0.065265   0.001303  -0.447900   0.609442   0.256465
   31  H 11  S    0.135835   0.001472  -0.294713  -0.025633   0.193363
   32  H 12  S    0.135161   0.002405  -0.296213   0.009039   0.189076
   33  H 13  S   -0.299791  -0.001800  -0.134334   0.610900  -0.195379
   34  H 14  S   -0.296094  -0.002604  -0.131590  -0.606943  -0.227091
   35  H 15  S    0.510498   0.005058  -0.547231  -0.005338   0.202922

                     31         32
                    0.7638     0.7713
                     A          A   
    1  O  1  S   -0.035278   0.022956
    2  O  1  S    0.219681  -0.144810
    3  O  1  X    0.103555  -0.147289
    4  O  1  Y    0.085077  -0.030217
    5  O  1  Z   -0.145977   0.137335
    6  H  2  S   -0.196907   0.024506
    7  C  3  S    0.200572  -0.030569
    8  C  3  S   -1.232147   0.172866
    9  C  3  X   -0.268144  -0.249394
   10  C  3  Y    0.047158   0.205801
   11  C  3  Z    0.172105   0.032171
   12  C  4  S   -0.157926  -0.016361
   13  C  4  S    0.963332   0.074353
   14  C  4  X   -0.124422   0.236304
   15  C  4  Y    0.245872   0.221440
   16  C  4  Z   -0.087064  -0.349079
   17  C  5  S    0.026975   0.209572
   18  C  5  S   -0.155444  -1.343368
   19  C  5  X    0.292780  -0.139120
   20  C  5  Y   -0.332613  -0.280810
   21  C  5  Z    0.022726   0.322585
   22  H  6  S    0.025705  -0.006067
   23  O  7  S   -0.000911  -0.000083
   24  O  7  S    0.000579   0.001751
   25  O  7  X    0.032592  -0.007257
   26  O  7  Y   -0.041076   0.007205
   27  O  7  Z    0.003969   0.000189
   28  H  8  S    0.024779  -0.005381
   29  H  9  S    0.639580  -0.139540
   30  H 10  S    0.637808  -0.135257
   31  H 11  S   -0.349241   0.170151
   32  H 12  S   -0.345940   0.169334
   33  H 13  S    0.111474   0.790963
   34  H 14  S    0.114750   0.785398
   35  H 15  S   -0.283363   0.312084

     ----------------------------------------------------------------
     PROPERTY VALUES FOR THE RHF   SELF-CONSISTENT FIELD WAVEFUNCTION
     ----------------------------------------------------------------

          -----------------
          ENERGY COMPONENTS
          -----------------

         WAVEFUNCTION NORMALIZATION =       1.0000000000

                ONE ELECTRON ENERGY =    -731.7082555902
                TWO ELECTRON ENERGY =     281.3264612156
           NUCLEAR REPULSION ENERGY =     184.6932958057
                                      ------------------
                       TOTAL ENERGY =    -265.6884985689

 ELECTRON-ELECTRON POTENTIAL ENERGY =     281.3264612156
  NUCLEUS-ELECTRON POTENTIAL ENERGY =    -995.3515153722
   NUCLEUS-NUCLEUS POTENTIAL ENERGY =     184.6932958057
                                      ------------------
             TOTAL POTENTIAL ENERGY =    -529.3317583509
               TOTAL KINETIC ENERGY =     263.6432597820
                 VIRIAL RATIO (V/T) =       2.0077575994

          ---------------------------------------
          MULLIKEN AND LOWDIN POPULATION ANALYSES
          ---------------------------------------

     ATOMIC MULLIKEN POPULATION IN EACH MOLECULAR ORBITAL

                      1          2          3          4          5

                  2.000000   2.000000   2.000000   2.000000   2.000000

    1             0.000003   2.001187  -0.000370   0.000000  -0.000000
    2            -0.000037  -0.000660  -0.000024  -0.000000  -0.000000
    3             0.000000  -0.000538   2.002977  -0.000673  -0.000022
    4             0.000000   0.000002  -0.000690   1.939966   0.062716
    5             0.000000  -0.000000   0.000002   0.062648   1.940318
    6            -0.000617   0.000000   0.000000   0.000000  -0.000000
    7             2.001267   0.000003  -0.000000  -0.000000  -0.000000
    8            -0.000617   0.000000   0.000000   0.000000  -0.000000
    9             0.000000   0.000003  -0.000948  -0.000000  -0.000000
   10             0.000000   0.000003  -0.000948  -0.000000  -0.000000
   11             0.000000  -0.000000   0.000000  -0.000944  -0.000044
   12             0.000000  -0.000000   0.000000  -0.000944  -0.000044
   13            -0.000000  -0.000000   0.000000  -0.000017  -0.000975
   14            -0.000000  -0.000000   0.000000  -0.000017  -0.000975
   15             0.000000  -0.000000   0.000000  -0.000018  -0.000974

                      6          7          8          9         10

                  2.000000   2.000000   2.000000   2.000000   2.000000

    1             0.026574   1.464553   0.063769   0.143033   0.075318
    2             0.016843   0.150454   0.015381   0.039775   0.004706
    3             0.004134   0.295533   0.230942   0.498097   0.428536
    4             0.000191   0.020250   0.700438   0.197514   0.512266
    5             0.000006   0.000940   0.567968   0.549796   0.194643
    6             0.174350   0.004387   0.000052   0.000142   0.000007
    7             1.603084   0.034200   0.000424   0.001759   0.000303
    8             0.174461   0.004385   0.000055   0.000163   0.000021
    9             0.000168   0.011254   0.024059   0.095849   0.146141
   10             0.000168   0.011265   0.024132   0.095926   0.146735
   11             0.000010   0.001329   0.082661   0.012008   0.174616
   12             0.000010   0.001321   0.082652   0.012024   0.174451
   13             0.000000   0.000052   0.070837   0.109103   0.060183
   14             0.000000   0.000052   0.070840   0.109227   0.060044
   15             0.000000   0.000026   0.065790   0.135583   0.022030

                     11         12         13         14         15

                  2.000000   2.000000   2.000000   2.000000   2.000000

    1             0.000383   0.088301   0.650388   0.090481   0.184033
    2             0.000005   0.000405   0.393075   0.000900  -0.000000
    3             0.000453   0.422743   0.320199   0.205843   0.419001
    4             0.000141   0.454343   0.080959   0.252161   0.036944
    5             0.000042   0.236745   0.075869   0.740456   0.524271
    6             0.450999   0.000455   0.024197   0.000004   0.000095
    7             1.095627   0.000950   0.305777   0.000644   0.000197
    8             0.451859   0.000129   0.023386  -0.000000   0.000017
    9             0.000212   0.155463   0.041813   0.018388   0.169375
   10             0.000157   0.145138   0.051785   0.018143   0.171923
   11             0.000056   0.157010   0.002631   0.025623   0.015430
   12             0.000035   0.159201   0.000689   0.025348   0.015322
   13             0.000017   0.087796   0.009738   0.079089   0.229211
   14             0.000013   0.091316   0.006135   0.076816   0.234180
   15             0.000001   0.000004   0.013360   0.466105   0.000001

                     16         17         18         19         20

                  2.000000   2.000000   2.000000   2.000000   2.000000

    1             0.088730   0.129197   0.068786   0.081913   0.596437
    2             0.000346   0.032287   0.007164   0.000003   0.006491
    3             0.095928   0.029172   0.332122   0.074585   0.340034
    4             0.105447   0.461102   0.294191   0.520873   0.253513
    5             0.096576   0.474748   0.157526   0.254008   0.286187
    6             0.139377   0.009764   0.000071   0.000004   0.000450
    7             1.283031   0.493943   0.830164   0.000948   0.387598
    8             0.139721   0.009751   0.000094   0.000009   0.000498
    9             0.012864   0.000458   0.011639   0.052786   0.019933
   10             0.011222   0.000516   0.014772   0.049418   0.020596
   11             0.001715   0.086520   0.035898   0.318100   0.010707
   12             0.001655   0.085708   0.050535   0.304947   0.010676
   13             0.011124   0.086651   0.022453   0.174543   0.002904
   14             0.009095   0.084905   0.030558   0.167747   0.002935
   15             0.003168   0.015278   0.144028   0.000116   0.061042

                     21         22

                  2.000000   2.000000

    1             0.969438   1.616997
    2             0.125078   0.000000
    3             0.205567   0.087297
    4             0.204489   0.002736
    5             0.015719   0.000398
    6             0.005027   0.000006
    7             0.292446   0.000044
    8             0.005135   0.000007
    9             0.065529   0.139061
   10             0.062219   0.141681
   11             0.014559   0.005773
   12             0.014016   0.006000
   13             0.001902  -0.000000
   14             0.001844  -0.000001
   15             0.017034   0.000001

               ----- POPULATIONS IN EACH AO -----
                             MULLIKEN      LOWDIN
              1  O  1  S      1.99773     1.99597
              2  O  1  S      1.83114     1.70824
              3  O  1  X      1.33533     1.35797
              4  O  1  Y      1.50719     1.51915
              5  O  1  Z      1.66776     1.67831
              6  H  2  S      0.79220     0.85195
              7  C  3  S      1.99238     1.98476
              8  C  3  S      1.17576     1.04577
              9  C  3  X      0.89434     0.93147
             10  C  3  Y      0.98143     1.01207
             11  C  3  Z      0.94801     0.97822
             12  C  4  S      1.99205     1.98504
             13  C  4  S      1.17837     1.02719
             14  C  4  X      0.95988     0.99515
             15  C  4  Y      0.97743     1.01055
             16  C  4  Z      0.99182     1.01968
             17  C  5  S      1.99203     1.98537
             18  C  5  S      1.18360     1.01387
             19  C  5  X      0.98442     1.01716
             20  C  5  Y      1.01573     1.04102
             21  C  5  Z      1.00308     1.03154
             22  H  6  S      0.80877     0.86237
             23  O  7  S      1.99773     1.99603
             24  O  7  S      1.83845     1.69345
             25  O  7  X      1.31199     1.32759
             26  O  7  Y      1.61114     1.61995
             27  O  7  Z      1.57310     1.58339
             28  H  8  S      0.80907     0.86264
             29  H  9  S      0.96405     0.99574
             30  H 10  S      0.96485     0.99638
             31  H 11  S      0.94366     0.97539
             32  H 12  S      0.94360     0.97535
             33  H 13  S      0.94461     0.97432
             34  H 14  S      0.94471     0.97440
             35  H 15  S      0.94258     0.97258

          ----- MULLIKEN ATOMIC OVERLAP POPULATIONS -----
          (OFF-DIAGONAL ELEMENTS NEED TO BE MULTIPLIED BY 2)

             1           2           3           4           5

    1    7.8754179
    2    0.2526616   0.5703815
    3    0.2652972  -0.0394564   4.7288139
    4   -0.0177272   0.0024041   0.3568673   4.7376157
    5    0.0002090  -0.0000336  -0.0200905   0.3616935   4.7307690
    6    0.0002876  -0.0024151  -0.0000018   0.0000001  -0.0000000
    7   -0.0048265   0.0175180   0.0001511  -0.0000009   0.0000000
    8    0.0002922  -0.0023739  -0.0000036   0.0000002  -0.0000000
    9   -0.0157132  -0.0033251   0.3738290  -0.0236564  -0.0016523
   10   -0.0158066  -0.0031867   0.3736602  -0.0237171  -0.0016816
   11   -0.0004763   0.0000113  -0.0221717   0.3833401  -0.0217223
   12   -0.0004659   0.0000106  -0.0221666   0.3833621  -0.0217209
   13    0.0000024  -0.0000009  -0.0019861  -0.0205222   0.3841707
   14    0.0000023  -0.0000009  -0.0019682  -0.0205244   0.3841645
   15   -0.0000038   0.0000007   0.0011560  -0.0195832   0.3847614

             6           7           8           9          10

    6    0.5960309
    7    0.2585271   7.8025147
    8   -0.0436545   0.2584401   0.5963789
    9   -0.0000036   0.0000435  -0.0000014   0.6636715
   10   -0.0000010   0.0000417  -0.0000049  -0.0289523   0.6646551
   11    0.0000000  -0.0000000   0.0000000   0.0018440  -0.0023661
   12    0.0000000  -0.0000000   0.0000000  -0.0024022   0.0018453
   13   -0.0000000   0.0000000  -0.0000000   0.0003626   0.0000034
   14   -0.0000000   0.0000000  -0.0000000   0.0000036   0.0003626
   15    0.0000000  -0.0000000   0.0000000  -0.0000019  -0.0000015

            11          12          13          14          15

   11    0.6312115
   12   -0.0236007   0.6311502
   13    0.0018379  -0.0021387   0.6271857
   14   -0.0021646   0.0018376  -0.0223179   0.6273103
   15   -0.0020858  -0.0021099  -0.0219858  -0.0219924   0.6244223

          TOTAL MULLIKEN AND LOWDIN ATOMIC POPULATIONS
       ATOM         MULL.POP.    CHARGE          LOW.POP.     CHARGE
    1 O             8.339150   -0.339150         8.259632   -0.259632
    2 H             0.792195    0.207805         0.851955    0.148045
    3 C             5.991930    0.008070         5.952296    0.047704
    4 C             6.099552   -0.099552         6.037605   -0.037605
    5 C             6.178867   -0.178867         6.088957   -0.088957
    6 H             0.808770    0.191230         0.862368    0.137632
    7 O             8.332409   -0.332409         8.220404   -0.220404
    8 H             0.809073    0.190927         0.862637    0.137363
    9 H             0.964046    0.035954         0.995736    0.004264
   10 H             0.964851    0.035149         0.996380    0.003620
   11 H             0.943657    0.056343         0.975389    0.024611
   12 H             0.943601    0.056399         0.975347    0.024653
   13 H             0.944611    0.055389         0.974319    0.025681
   14 H             0.944713    0.055287         0.974398    0.025602
   15 H             0.942576    0.057424         0.972578    0.027422

          -------------------------------
          BOND ORDER AND VALENCE ANALYSIS     BOND ORDER THRESHOLD=0.050
          -------------------------------

                   BOND                       BOND                       BOND
  ATOM PAIR DIST  ORDER      ATOM PAIR DIST  ORDER      ATOM PAIR DIST  ORDER
    1   2  0.992  0.878        1   3  1.429  1.002        2   7  1.723  0.060
    3   4  1.548  0.986        3   9  1.098  0.964        3  10  1.098  0.964
    4   5  1.541  1.001        4  11  1.088  0.976        4  12  1.088  0.976
    5  13  1.086  0.984        5  14  1.086  0.984        5  15  1.086  0.984
    6   7  0.987  0.953        7   8  0.987  0.953

                       TOTAL       BONDED        FREE
      ATOM            VALENCE     VALENCE     VALENCE
    1 O                 1.973       1.973       0.000
    2 H                 0.957       0.957       0.000
    3 C                 3.943       3.943      -0.000
    4 C                 3.966       3.966      -0.000
    5 C                 3.968       3.968       0.000
    6 H                 0.963       0.963      -0.000
    7 O                 2.001       2.001      -0.000
    8 H                 0.964       0.964      -0.000
    9 H                 0.999       0.999      -0.000
   10 H                 0.999       0.999      -0.000
   11 H                 0.997       0.997      -0.000
   12 H                 0.997       0.997      -0.000
   13 H                 0.997       0.997       0.000
   14 H                 0.997       0.997       0.000
   15 H                 0.997       0.997       0.000

          ---------------------
          ELECTROSTATIC MOMENTS
          ---------------------

 POINT   1           X           Y           Z (BOHR)    CHARGE
                -6.369546    0.737751    0.296940       -0.00 (A.U.)
         DX          DY          DZ         /D/  (DEBYE)
    -1.594672    2.353324   -0.352684    2.864524
 ...... END OF PROPERTY EVALUATION ......
 STEP CPU TIME =     0.00 TOTAL CPU TIME =          9.4 (      0.2 MIN)
 TOTAL WALL CLOCK TIME=          9.6 SECONDS, CPU UTILIZATION IS    98.33%
  $VIB   
          IVIB=   0 IATOM=   0 ICOORD=   0 E=     -265.6884985689
  2.501702749E-06 6.892606789E-06-3.075607818E-06-7.134830972E-07-3.130313668E-06
 -6.062647167E-06-3.291410874E-05 1.202265122E-05 4.139909454E-06 2.500740336E-05
  4.460594502E-06-2.111916122E-06-3.907495920E-05 3.967047610E-07 1.390850721E-05
 -3.651523602E-05-4.634451946E-05-4.887780885E-05-3.939152108E-05-7.567354527E-07
  6.662974146E-05 8.538460787E-05 3.294706097E-05-1.722673444E-05-6.969473931E-06
  9.062105862E-06-1.757599720E-06 4.762007525E-06 7.131220510E-06 7.164245531E-06
  6.542487985E-06-4.265440383E-06-2.941830635E-06-6.727437684E-06-2.255028574E-05
 -8.980391518E-06 2.954016828E-06 6.137893459E-06-1.590866633E-05 2.858281006E-05
  1.371235043E-05 9.892277377E-06 6.571155694E-06-1.571589148E-05 5.208523113E-06
 -1.594671501E+00 2.353324263E+00-3.526839278E-01
 ......END OF GEOMETRY SEARCH......
 STEP CPU TIME =     0.01 TOTAL CPU TIME =          9.4 (      0.2 MIN)
 TOTAL WALL CLOCK TIME=          9.6 SECONDS, CPU UTILIZATION IS    98.33%
               580000  WORDS OF DYNAMIC MEMORY USED
 EXECUTION OF GAMESS TERMINATED NORMALLY Mon Mar  9 21:12:39 2020
 DDI: 263640 bytes (0.3 MB / 0 MWords) used by master data server.

 ----------------------------------------
 CPU timing information for all processes
 ========================================
 0: 9.72 + 0.369 = 9.441
 1: 0.01 + 0.01 = 0.02
 ----------------------------------------
 ddikick.x: exited gracefully.
unset echo
----- accounting info -----
Files used on the master node 192.168.0.12 were:
-rw-r--r--@ 1 wurthel  staff      908 Mar  9 21:12 .//input/complex_2.F05
-rw-r--r--  1 wurthel  staff  1980176 Mar  9 21:12 .//input/complex_2.F08
-rw-r--r--  1 wurthel  staff  1701440 Mar  9 21:12 .//input/complex_2.F10
-rw-r--r--  1 wurthel  staff  1393679 Mar  9 21:12 .//input/complex_2.dat
-rw-r--r--@ 1 wurthel  staff      908 Mar  9 21:02 .//input/complex_2.inp
-rw-r--r--  1 wurthel  staff   890102 Mar  9 21:12 .//input/complex_2.log
ls: No match.
ls: No match.
ls: No match.
Mon Mar  9 21:12:42 MSK 2020
9.137u 0.429s 0:12.72 75.0%	0+0k 0+0io 0pf+0w
