----- GAMESS execution script 'rungms' -----
This job is running on host Vusals-MacBook-Pro.local
under operating system Darwin at Tue Mar 17 14:36:18 MSK 2020
Available scratch disk space (Kbyte units) at beginning of the job is
Filesystem   1024-blocks     Used Available Capacity iused               ifree %iused  Mounted on
/dev/disk1s5   118181844 45377180  68393664    40% 1007357 9223372036853768450    0%   /
GAMESS temporary binary files will be written to ./
GAMESS supplementary output files will be written to ./
Copying input file ES.inp to your run's scratch directory...
cp ES.inp .//ES.F05
unset echo
.//ddikick.x .//gamess.30Sep2018R3.x ES -ddi 1 1 Vusals-MacBook-Pro.local -scr ./

 Distributed Data Interface kickoff program.
 Initiating 1 compute processes on 1 nodes to run the following command:
 .//gamess.30Sep2018R3.x ES 

          ******************************************************
          *         GAMESS VERSION = 30 SEP 2018 (R3)         *
          *             FROM IOWA STATE UNIVERSITY             *
          * M.W.SCHMIDT, K.K.BALDRIDGE, J.A.BOATZ, S.T.ELBERT, *
          *   M.S.GORDON, J.H.JENSEN, S.KOSEKI, N.MATSUNAGA,   *
          *          K.A.NGUYEN, S.J.SU, T.L.WINDUS,           *
          *       TOGETHER WITH M.DUPUIS, J.A.MONTGOMERY       *
          *         J.COMPUT.CHEM.  14, 1347-1363(1993)        *
          **************** 64 BIT APPLE VERSION ****************

  SINCE 1993, STUDENTS AND POSTDOCS WORKING AT IOWA STATE UNIVERSITY
  AND ALSO IN THEIR VARIOUS JOBS AFTER LEAVING ISU HAVE MADE IMPORTANT
  CONTRIBUTIONS TO THE CODE:
     IVANA ADAMOVIC, CHRISTINE AIKENS, YURI ALEXEEV, POOJA ARORA,
     ANDREY ASADCHEV, ROB BELL, PRADIPTA BANDYOPADHYAY, JONATHAN BENTZ,
     BRETT BODE, KURT BRORSEN, CALEB CARLIN, GALINA CHABAN, WEI CHEN,
     CHEOL HO CHOI, PAUL DAY, ALBERT DEFUSCO, NUWAN DESILVA, TIM DUDLEY,
     DMITRI FEDOROV, ALEX FINDLATER, GRAHAM FLETCHER, MARK FREITAG,
     KURT GLAESEMANN, ANASTASIA GUNINA,
     DAN KEMP, GRANT MERRILL, NORIYUKI MINEZAWA, JONATHAN MULLIN,
     TAKESHI NAGATA, SEAN NEDD, HEATHER NETZLOFF, BOSILJKA NJEGIC, RYAN OLSON,
     MIKE PAK, BUU PHAM,
     SPENCER PRUITT, LUKE ROSKOP, JIM SHOEMAKER, LYUDMILA SLIPCHENKO,
     TONY SMITH, SAROM SOK LEANG, JIE SONG, TETSUYA TAKETSUGU, SIMON WEBB,
     PENG XU, SOOHAENG YOO, FEDERICO ZAHARIEV

  ADDITIONAL CODE HAS BEEN PROVIDED BY COLLABORATORS IN OTHER GROUPS:
     IOWA STATE UNIVERSITY:
          JOE IVANIC, AARON WEST, LAIMUTIS BYTAUTAS, KLAUS RUEDENBERG
     UNIVERSITY OF TOKYO: KIMIHIKO HIRAO, TAKAHITO NAKAJIMA,
          TAKAO TSUNEDA, MUNEAKI KAMIYA, SUSUMU YANAGISAWA,
          KIYOSHI YAGI, MAHITO CHIBA, SEIKEN TOKURA, NAOAKI KAWAKAMI
     UNIVERSITY OF AARHUS: FRANK JENSEN
     UNIVERSITY OF IOWA: VISVALDAS KAIRYS, HUI LI
     NATIONAL INST. OF STANDARDS AND TECHNOLOGY: WALT STEVENS, DAVID GARMER
     UNIVERSITY OF PISA: BENEDETTA MENNUCCI, JACOPO TOMASI
     UNIVERSITY OF MEMPHIS: HENRY KURTZ, PRAKASHAN KORAMBATH
     UNIVERSITY OF ALBERTA: TOBY ZENG, MARIUSZ KLOBUKOWSKI
     UNIVERSITY OF NEW ENGLAND: MARK SPACKMAN
     MIE UNIVERSITY: HIROAKI UMEDA
     NAT. INST. OF ADVANCED INDUSTRIAL SCIENCE AND TECHNOLOGY: KAZUO KITAURA
     MICHIGAN STATE UNIVERSITY:
          KAROL KOWALSKI, MARTA WLOCH, JEFFREY GOUR, JESSE LUTZ,
          WEI LI, JUN SHEN, J. EMILIANO DEUSTUA, PIOTR PIECUCH
     UNIVERSITY OF MINNESOTA:
          YINAN SHU
     UNIVERSITY OF SILESIA: MONIKA MUSIAL, STANISLAW KUCHARSKI
     FACULTES UNIVERSITAIRES NOTRE-DAME DE LA PAIX:
          OLIVIER QUINET, BENOIT CHAMPAGNE
     UNIVERSITY OF CALIFORNIA - SANTA BARBARA: BERNARD KIRTMAN
     INSTITUTE FOR MOLECULAR SCIENCE:
          KAZUYA ISHIMURA, MICHIO KATOUDA, AND SHIGERU NAGASE
     UNIVERSITY OF NOTRE DAME: ANNA POMOGAEVA, DAN CHIPMAN
     KYUSHU UNIVERSITY:
          HARUYUKI NAKANO,
          FENG LONG GU, JACEK KORCHOWIEC, MARCIN MAKOWSKI, AND YURIKO AOKI,
          HIROTOSHI MORI AND EISAKU MIYOSHI
     PENNSYLVANIA STATE UNIVERSITY:
          TZVETELIN IORDANOV, CHET SWALINA, JONATHAN SKONE,
          SHARON HAMMES-SCHIFFER
     WASEDA UNIVERSITY:
          MASATO KOBAYASHI, TOMOKO AKAMA, TSUGUKI TOUMA,
          TAKESHI YOSHIKAWA, YASUHIRO IKABATA, JUNJI SEINO,
          YUYA NAKAJIMA, HIROMI NAKAI
     NANJING UNIVERSITY: SHUHUA LI
     UNIVERSITY OF NEBRASKA:
          PEIFENG SU, DEJUN SI, NANDUN THELLAMUREGE, YALI WANG, HUI LI
     UNIVERSITY OF ZURICH: ROBERTO PEVERATI, KIM BALDRIDGE
     N. COPERNICUS UNIVERSITY AND JACKSON STATE UNIVERSITY:
          MARIA BARYSZ
     UNIVERSITY OF COPENHAGEN: Jimmy Kromann, CASPER STEINMANN
     TOKYO INSTITUTE OF TECHNOLOGY: HIROYA NAKATA
     NAGOYA UNIVERSITY: YOSHIO NISHIMOTO, STEPHAN IRLE
     MOSCOW STATE UNIVERSITY: VLADIMIR MIRONOV

 EXECUTION OF GAMESS BEGUN Tue Mar 17 14:36:18 2020

            ECHO OF THE FIRST FEW INPUT CARDS -
 INPUT CARD>!   File created by the GAMESS Input Deck Generator Plugin for Avogadro         
 INPUT CARD> $BASIS GBASIS=N31 NGAUSS=6 NDFUNC=0 $END                                       
 INPUT CARD> $CONTRL SCFTYP=RHF RUNTYP=OPTIMIZE DFTTYP=B3LYP MAXIT=200 $END                 
 INPUT CARD> $STATPT OPTTOL=0.0001 NSTEP=200 $END                                           
 INPUT CARD>                                                                                
 INPUT CARD> $DATA                                                                          
 INPUT CARD>Title                                                                           
 INPUT CARD>C1                                                                              
 INPUT CARD>F     9.0    -0.46776     1.20567     0.38178                                   
 INPUT CARD>F     9.0    -0.42436    -0.94390     0.84894                                   
 INPUT CARD>F     9.0    -0.42394    -0.28300    -1.23770                                   
 INPUT CARD>O     8.0     1.39981     0.01525     0.00511                                   
 INPUT CARD>C     6.0     0.00105     0.00824     0.00261                                   
 INPUT CARD>H     1.0     1.59559    -0.88826    -0.28094                                   
 INPUT CARD> $END                                                                           
    1000000 WORDS OF MEMORY AVAILABLE

     BASIS OPTIONS
     -------------
     GBASIS=N31          IGAUSS=       6      POLAR=NONE    
     NDFUNC=       0     NFFUNC=       0     DIFFSP=       F
     NPFUNC=       0      DIFFS=       F     BASNAM=        


     RUN TITLE
     ---------
 Title                                                                           

 THE POINT GROUP OF THE MOLECULE IS C1      
 THE ORDER OF THE PRINCIPAL AXIS IS     0

 ATOM      ATOMIC                      COORDINATES (BOHR)
           CHARGE         X                   Y                   Z
 F           9.0    -0.8839382280        2.2783859316        0.7214595876
 F           9.0    -0.8019241201       -1.7837123598        1.6042639800
 F           9.0    -0.8011304352       -0.5347924545       -2.3389138550
 O           8.0     2.6452573349        0.0288183213        0.0096564998
 C           6.0     0.0019842123        0.0155713421        0.0049321848
 H           1.0     3.0152278887       -1.6785680059       -0.5308996190

          INTERNUCLEAR DISTANCES (ANGS.)
          ------------------------------

                1 F          2 F          3 F          4 O          5 C     

   1 F       0.0000000    2.2001757 *  2.2001759 *  2.2465079 *  1.3406682 *
   2 F       2.2001757 *  0.0000000    2.1888023 *  2.2270191 *  1.3430632 *
   3 F       2.2001759 *  2.1888023 *  0.0000000    2.2270146 *  1.3430585 *
   4 O       2.2465079 *  2.2270191 *  2.2270146 *  0.0000000    1.3987798 *
   5 C       1.3406682 *  1.3430632 *  1.3430585 *  1.3987798 *  0.0000000  
   6 H       3.0134953    2.3151507 *  2.3152172 *  0.9677214 *  1.8511269 *

                6 H     

   1 F       3.0134953  
   2 F       2.3151507 *
   3 F       2.3152172 *
   4 O       0.9677214 *
   5 C       1.8511269 *
   6 H       0.0000000  

  * ... LESS THAN  3.000


     ATOMIC BASIS SET
     ----------------
 THE CONTRACTED PRIMITIVE FUNCTIONS HAVE BEEN UNNORMALIZED
 THE CONTRACTED BASIS FUNCTIONS ARE NOW NORMALIZED TO UNITY

  SHELL TYPE  PRIMITIVE        EXPONENT          CONTRACTION COEFFICIENT(S)

 F         

      1   S       1          7001.7130900    0.001819616901
      1   S       2          1051.3660900    0.013916079607
      1   S       3           239.2856900    0.068405324535
      1   S       4            67.3974453    0.233185760119
      1   S       5            21.5199573    0.471267439240
      1   S       6             7.4031013    0.356618546182

      2   L       7            20.8479528   -0.108506975109    0.071628724237
      2   L       8             4.8083083   -0.146451658147    0.345912102697
      2   L       9             1.3440699    1.128688581135    0.722469956367

      3   L      10             0.3581514    1.000000000000    1.000000000000

 F         

      4   S      11          7001.7130900    0.001819616901
      4   S      12          1051.3660900    0.013916079607
      4   S      13           239.2856900    0.068405324535
      4   S      14            67.3974453    0.233185760119
      4   S      15            21.5199573    0.471267439240
      4   S      16             7.4031013    0.356618546182

      5   L      17            20.8479528   -0.108506975109    0.071628724237
      5   L      18             4.8083083   -0.146451658147    0.345912102697
      5   L      19             1.3440699    1.128688581135    0.722469956367

      6   L      20             0.3581514    1.000000000000    1.000000000000

 F         

      7   S      21          7001.7130900    0.001819616901
      7   S      22          1051.3660900    0.013916079607
      7   S      23           239.2856900    0.068405324535
      7   S      24            67.3974453    0.233185760119
      7   S      25            21.5199573    0.471267439240
      7   S      26             7.4031013    0.356618546182

      8   L      27            20.8479528   -0.108506975109    0.071628724237
      8   L      28             4.8083083   -0.146451658147    0.345912102697
      8   L      29             1.3440699    1.128688581135    0.722469956367

      9   L      30             0.3581514    1.000000000000    1.000000000000

 O         

     10   S      31          5484.6716600    0.001831074430
     10   S      32           825.2349460    0.013950172200
     10   S      33           188.0469580    0.068445078098
     10   S      34            52.9645000    0.232714335992
     10   S      35            16.8975704    0.470192897984
     10   S      36             5.7996353    0.358520852987

     11   L      37            15.5396162   -0.110777549525    0.070874268231
     11   L      38             3.5999336   -0.148026262701    0.339752839147
     11   L      39             1.0137618    1.130767015354    0.727158577316

     12   L      40             0.2700058    1.000000000000    1.000000000000

 C         

     13   S      41          3047.5248800    0.001834737132
     13   S      42           457.3695180    0.014037322813
     13   S      43           103.9486850    0.068842622264
     13   S      44            29.2101553    0.232184443216
     13   S      45             9.2866630    0.467941348435
     13   S      46             3.1639270    0.362311985337

     14   L      47             7.8682723   -0.119332419775    0.068999066591
     14   L      48             1.8812885   -0.160854151696    0.316423960957
     14   L      49             0.5442493    1.143456437840    0.744308290898

     15   L      50             0.1687145    1.000000000000    1.000000000000

 H         

     16   S      51            18.7311370    0.033494604338
     16   S      52             2.8253944    0.234726953484
     16   S      53             0.6401217    0.813757326146

     17   S      54             0.1612778    1.000000000000

 TOTAL NUMBER OF BASIS SET SHELLS             =   17
 NUMBER OF CARTESIAN GAUSSIAN BASIS FUNCTIONS =   47
 NUMBER OF ELECTRONS                          =   42
 CHARGE OF MOLECULE                           =    0
 SPIN MULTIPLICITY                            =    1
 NUMBER OF OCCUPIED ORBITALS (ALPHA)          =   21
 NUMBER OF OCCUPIED ORBITALS (BETA )          =   21
 TOTAL NUMBER OF ATOMS                        =    6
 THE NUCLEAR REPULSION ENERGY IS      203.5343058370

     LEBEDEV GRID-BASED DFT OPTIONS
     ------------------------------
     DFTTYP=B3LYP   
     NRAD  =      96     NLEB  =     302
     NRAD0 =      24     NLEB0 =     110
     SWOFF =    5.00E-03 (PURE SCF -> DFT)
     SWITCH=    3.00E-04 (COARSE -> TIGHT GRID)
     THRESH=    0.00E+00 GTHRE=    1.00E+00

 GRIMME'S EMPIRICAL DISPERSION CORRECTION= F

     $CONTRL OPTIONS
     ---------------
 SCFTYP=RHF          RUNTYP=OPTIMIZE     EXETYP=RUN     
 MPLEVL=       0     CITYP =NONE         CCTYP =NONE         VBTYP =NONE    
 DFTTYP=B3LYP        TDDFT =NONE    
 MULT  =       1     ICHARG=       0     NZVAR =       0     COORD =UNIQUE  
 PP    =NONE         RELWFN=NONE         LOCAL =NONE         NUMGRD=       F
 ISPHER=      -1     NOSYM =       0     MAXIT =     200     UNITS =ANGS    
 PLTORB=       F     MOLPLT=       F     AIMPAC=       F     FRIEND=        
 NPRINT=       7     IREST =       0     GEOM  =INPUT   
 NORMF =       0     NORMP =       0     ITOL  =      20     ICUT  =       9
 INTTYP=BEST         GRDTYP=BEST         QMTTOL= 1.0E-06

     $SYSTEM OPTIONS
     ---------------
  REPLICATED MEMORY=     1000000 WORDS (ON EVERY NODE).
 DISTRIBUTED MEMDDI=           0 MILLION WORDS IN AGGREGATE,
 MEMDDI DISTRIBUTED OVER   1 PROCESSORS IS           0 WORDS/PROCESSOR.
 TOTAL MEMORY REQUESTED ON EACH PROCESSOR=     1000000 WORDS.
 TIMLIM=      525600.00 MINUTES, OR     365.0 DAYS.
 PARALL= F  BALTYP=  DLB     KDIAG=    0  COREFL= F
 MXSEQ2=     300 MXSEQ3=     150  mem10=         0

          ----------------
          PROPERTIES INPUT
          ----------------

     MOMENTS            FIELD           POTENTIAL          DENSITY
 IEMOM =       1   IEFLD =       0   IEPOT =       0   IEDEN =       0
 WHERE =COMASS     WHERE =NUCLEI     WHERE =NUCLEI     WHERE =NUCLEI  
 OUTPUT=BOTH       OUTPUT=BOTH       OUTPUT=BOTH       OUTPUT=BOTH    
 IEMINT=       0   IEFINT=       0                     IEDINT=       0
                                                       MORB  =       0
          EXTRAPOLATION IN EFFECT
          DIIS IN EFFECT
 ORBITAL PRINTING OPTION: NPREO=     1    47     2     1

     -------------------------------
     INTEGRAL TRANSFORMATION OPTIONS
     -------------------------------
     NWORD  =            0
     CUTOFF = 1.0E-09     MPTRAN =       0
     DIRTRF =       F     AOINTS =DUP     

          ----------------------
          INTEGRAL INPUT OPTIONS
          ----------------------
 NOPK  =       1 NORDER=       0 SCHWRZ=       T

     ------------------------------------------
     THE POINT GROUP IS C1 , NAXIS= 0, ORDER= 1
     ------------------------------------------

     DIMENSIONS OF THE SYMMETRY SUBSPACES ARE
 A   =   47

 ..... DONE SETTING UP THE RUN .....
 STEP CPU TIME =     0.02 TOTAL CPU TIME =          0.0 (      0.0 MIN)
 TOTAL WALL CLOCK TIME=          0.1 SECONDS, CPU UTILIZATION IS    14.29%


          -----------------------------
          STATIONARY POINT LOCATION RUN
          -----------------------------

 OBTAINING INITIAL HESSIAN, HESS=GUESS   
 CARTESIAN COORDINATE OPTIMIZATION USING BADGER'S RULE FORCE CONSTANT GUESS

          PARAMETERS CONTROLLING GEOMETRY SEARCH ARE
          METHOD =QA                  UPHESS =BFGS    
          NNEG   =         0          NFRZ   =         0
          NSTEP  =       200          IFOLOW =         1
          HESS   =GUESS               RESTAR =         F
          IHREP  =         0          HSSEND =         F
          NPRT   =         0          NPUN   =         0
          OPTTOL = 1.000E-04          RMIN   = 1.500E-03
          RMAX   = 1.000E-01          RLIM   = 7.000E-02
          DXMAX  = 3.000E-01          PURIFY =         F
          MOVIE  =         F          TRUPD  =         T
          TRMAX  = 5.000E-01          TRMIN  = 5.000E-02
          ITBMAT =         5          STPT   =         F
          STSTEP = 1.000E-02          PROJCT=          T

 BEGINNING GEOMETRY SEARCH POINT NSERCH=   0 ...

 COORDINATES OF ALL ATOMS ARE (ANGS)
   ATOM   CHARGE       X              Y              Z
 ------------------------------------------------------------
 F           9.0  -0.4677600000   1.2056700000   0.3817800000
 F           9.0  -0.4243600000  -0.9439000000   0.8489400000
 F           9.0  -0.4239400000  -0.2830000000  -1.2377000000
 O           8.0   1.3998100000   0.0152500000   0.0051100000
 C           6.0   0.0010500000   0.0082400000   0.0026100000
 H           1.0   1.5955900000  -0.8882600000  -0.2809400000

          ********************
          1 ELECTRON INTEGRALS
          ********************
 ...... END OF ONE-ELECTRON INTEGRALS ......
 STEP CPU TIME =     0.01 TOTAL CPU TIME =          0.0 (      0.0 MIN)
 TOTAL WALL CLOCK TIME=          0.2 SECONDS, CPU UTILIZATION IS    20.00%

          -------------
          GUESS OPTIONS
          -------------
          GUESS =HUCKEL            NORB  =       0          NORDER=       0
          MIX   =       F          PRTMO =       F          PUNMO =       F
          TOLZ  = 1.0E-08          TOLE  = 1.0E-05
          SYMDEN=       F          PURIFY=       F

 INITIAL GUESS ORBITALS GENERATED BY HUCKEL   ROUTINE.
 HUCKEL GUESS REQUIRES     23481 WORDS.

 SYMMETRIES FOR INITIAL GUESS ORBITALS FOLLOW.   BOTH SET(S).
    21 ORBITALS ARE OCCUPIED (    5 CORE ORBITALS).
     6=A        7=A        8=A        9=A       10=A       11=A       12=A   
    13=A       14=A       15=A       16=A       17=A       18=A       19=A   
    20=A       21=A       22=A       23=A       24=A       25=A       26=A   
    27=A       28=A       29=A       30=A       31=A   
 ...... END OF INITIAL ORBITAL SELECTION ......
 STEP CPU TIME =     0.00 TOTAL CPU TIME =          0.0 (      0.0 MIN)
 TOTAL WALL CLOCK TIME=          0.2 SECONDS, CPU UTILIZATION IS    18.75%

                    ----------------------
                    AO INTEGRAL TECHNOLOGY
                    ----------------------
     S,P,L SHELL ROTATED AXIS INTEGRALS, REPROGRAMMED BY
        KAZUYA ISHIMURA (IMS) AND JOSE SIERRA (SYNSTAR).
     S,P,D,L SHELL ROTATED AXIS INTEGRALS PROGRAMMED BY
        KAZUYA ISHIMURA (INSTITUTE FOR MOLECULAR SCIENCE).
     S,P,D,F,G SHELL TO TOTAL QUARTET ANGULAR MOMENTUM SUM 5,
        ERIC PROGRAM BY GRAHAM FLETCHER (ELORET AND NASA ADVANCED
        SUPERCOMPUTING DIVISION, AMES RESEARCH CENTER).
     S,P,D,F,G,L SHELL GENERAL RYS QUADRATURE PROGRAMMED BY
        MICHEL DUPUIS (PACIFIC NORTHWEST NATIONAL LABORATORY).

          --------------------
          2 ELECTRON INTEGRALS
          --------------------

 THE -PK- OPTION IS OFF, THE INTEGRALS ARE NOT IN SUPERMATRIX FORM.
 STORING   15000 INTEGRALS/RECORD ON DISK, USING 12 BYTES/INTEGRAL.
 TWO ELECTRON INTEGRAL EVALUATION REQUIRES   89509 WORDS OF MEMORY.
 SCHWARZ INEQUALITY OVERHEAD:      1122 INTEGRALS, T=        0.00
 II,JST,KST,LST =  1  1  1  1 NREC =         1 INTLOC =    1
 II,JST,KST,LST =  2  1  1  1 NREC =         1 INTLOC =    2
 II,JST,KST,LST =  3  1  1  1 NREC =         1 INTLOC =   34
 II,JST,KST,LST =  4  1  1  1 NREC =         1 INTLOC =  214
 II,JST,KST,LST =  5  1  1  1 NREC =         1 INTLOC =  466
 II,JST,KST,LST =  6  1  1  1 NREC =         1 INTLOC = 3570
 II,JST,KST,LST =  7  1  1  1 NREC =         1 INTLOC =11304
 II,JST,KST,LST =  8  1  1  1 NREC =         1 INTLOC =12675
 II,JST,KST,LST =  9  1  1  1 NREC =         2 INTLOC =11676
 II,JST,KST,LST = 10  1  1  1 NREC =         4 INTLOC =10415
 II,JST,KST,LST = 11  1  1  1 NREC =         4 INTLOC =14899
 II,JST,KST,LST = 12  1  1  1 NREC =         7 INTLOC =14586
 II,JST,KST,LST = 13  1  1  1 NREC =        12 INTLOC =14074
 II,JST,KST,LST = 14  1  1  1 NREC =        14 INTLOC = 5501
 II,JST,KST,LST = 15  1  1  1 NREC =        22 INTLOC = 1218
 II,JST,KST,LST = 16  1  1  1 NREC =        32 INTLOC = 7205
 II,JST,KST,LST = 17  1  1  1 NREC =        35 INTLOC = 5513
 SCHWARZ INEQUALITY TEST SKIPPED        2077 INTEGRAL BLOCKS.
 TOTAL NUMBER OF NONZERO TWO-ELECTRON INTEGRALS =              564943
         38 INTEGRAL RECORDS WERE STORED ON DISK FILE  8.
  ...... END OF TWO-ELECTRON INTEGRALS .....
 STEP CPU TIME =     0.04 TOTAL CPU TIME =          0.1 (      0.0 MIN)
 TOTAL WALL CLOCK TIME=          0.2 SECONDS, CPU UTILIZATION IS    31.82%

          --------------------------
             R-B3LYP SCF CALCULATION
          --------------------------

     NUCLEAR ENERGY =       203.5343058370
     MAXIT =  200     NPUNCH=    2
     EXTRAP=T  DAMP=F  SHIFT=F  RSTRCT=F  DIIS=T  DEM=F  SOSCF=F
         DENSITY MATRIX CONVERGENCE THRESHOLD=  1.00E-05
     COARSE -> FINE DFT GRID SWITCH THRESHOLD=  3.00E-04 (SWITCH IN $DFT)
                   HF -> DFT SWITCH THRESHOLD=  5.00E-03 (SWOFF IN $DFT)
     MEMORY REQUIRED FOR RHF ITERS=    292426 WORDS.

 DFT CODE IS SWITCHING FROM THE FINE GRID NRAD= 96,  NLEB=  302
                      TO THE COARSE GRID NRAD0= 24, NLEB0=  110

     EXCHANGE FUNCTIONAL   =B88&HFX   
     CORRELATION FUNCTIONAL=LYP88&VWN5
     DFT THRESHOLD         =.230E-07
     GRID CHANGE THRESHOLD =.300E-03
 FOR AN EULER-MACLAURIN QUADRATURE USING  96 RADIAL POINTS:
 SMALLEST GAUSSIAN PRIMITIVE EXPONENT=        0.1612777588 OF TYPE -S-
 ON ATOM NUMBER   6 HAS RADIAL NORMALIZATION=  1.000000
  LARGEST GAUSSIAN PRIMITIVE EXPONENT=     7001.7130900000 OF TYPE -S-
 ON ATOM NUMBER   1 HAS RADIAL NORMALIZATION=  1.000000
 DFT IS SWITCHED OFF, PERFORMING PURE SCF UNTIL SWOFF THRESHOLD IS REACHED.

 ITER EX DEM     TOTAL ENERGY        E CHANGE  DENSITY CHANGE    DIIS ERROR
   1  0  0     -410.5307081180  -410.5307081180   0.402877177   0.786177968
          * * *   INITIATING DIIS PROCEDURE   * * *
   2  1  0     -411.4368815724    -0.9061734544   0.060632462   0.167175116
   3  2  0     -411.4780736685    -0.0411920961   0.034303383   0.042331338
   4  3  0     -411.4840582708    -0.0059846022   0.010193039   0.019789768
   5  4  0     -411.4849062724    -0.0008480016   0.001792095   0.001827119
 CONVERGED TO SWOFF, SO DFT CALCULATION IS NOW SWITCHED ON.
          * * *   INITIATING DIIS PROCEDURE   * * *
   6  5  0     -413.1405256335    -1.6556193612   0.093793238   0.084866765
   7  6  0     -413.1579754226    -0.0174497891   0.072734188   0.039375821
   8  7  0     -413.1616158263    -0.0036404037   0.025339121   0.034732584
   9  8  0     -413.1652233495    -0.0036075231   0.003539005   0.007857702
  10  9  0     -413.1653327997    -0.0001094502   0.000802714   0.000523521
  11 10  0     -413.1653329664    -0.0000001667   0.000380541   0.000460622
  12 11  0     -413.1653335735    -0.0000006072   0.000032044   0.000023273
 DFT CODE IS SWITCHING BACK TO THE FINE GRID
          * * *   INITIATING DIIS PROCEDURE   * * *
  13 12  0     -413.1774017336    -0.0120681601   0.003418507   0.003534977
  14 13  0     -413.1774291647    -0.0000274311   0.002203017   0.002415342
  15 14  0     -413.1774419750    -0.0000128103   0.000572565   0.000896499
  16 15  0     -413.1774446872    -0.0000027122   0.000112120   0.000077966
  17 16  0     -413.1774447081    -0.0000000209   0.000040227   0.000040573
  18 17  0     -413.1774447125    -0.0000000044   0.000014088   0.000014586
  19 18  0     -413.1774447132    -0.0000000008   0.000000815   0.000000767
  20 19  0     -413.1774447132    -0.0000000000   0.000000501   0.000000848

          -----------------
          DENSITY CONVERGED
          -----------------
     TIME TO FORM FOCK OPERATORS=       4.5 SECONDS (       0.2 SEC/ITER)
     TIME TO SOLVE SCF EQUATIONS=       0.0 SECONDS (       0.0 SEC/ITER)

 FINAL R-B3LYP ENERGY IS     -413.1774447132 AFTER  20 ITERATIONS
 DFT EXCHANGE + CORRELATION ENERGY =       -36.8682833628
 TOTAL ELECTRON NUMBER             =        41.9998535615

          ------------
          EIGENVECTORS
          ------------

                      1          2          3          4          5
                  -24.7545   -24.7545   -24.7537   -19.2154   -10.5076
                     A          A          A          A          A   
    1  F  1  S    0.029076   0.009916   0.994482   0.000024   0.000041
    2  F  1  S    0.001476   0.000488   0.027811   0.000427   0.000503
    3  F  1  X   -0.000031  -0.000009   0.000629   0.000112  -0.000054
    4  F  1  Y   -0.000084   0.000025  -0.001616   0.000037   0.000053
    5  F  1  Z    0.000027  -0.000159  -0.000512   0.000012   0.000017
    6  F  1  S   -0.003017  -0.000967  -0.015196  -0.001824  -0.001658
    7  F  1  X   -0.000074  -0.000025  -0.001539  -0.001113  -0.000571
    8  F  1  Y    0.001469   0.000095   0.003738   0.000420   0.002128
    9  F  1  Z    0.000091   0.001210   0.001183   0.000133   0.000674
   10  F  2  S    0.883022  -0.457999  -0.021189   0.000027   0.000041
   11  F  2  S    0.025059  -0.012321  -0.000122   0.000370   0.000433
   12  F  2  X    0.000506  -0.000293  -0.000064   0.000034  -0.000085
   13  F  2  Y    0.001067  -0.000625   0.000066  -0.000073  -0.000064
   14  F  2  Z   -0.001064   0.000439   0.000105   0.000032   0.000051
   15  F  2  S   -0.014923   0.005070  -0.001501  -0.001935  -0.001465
   16  F  2  X   -0.001375   0.000625   0.000154  -0.000886  -0.000401
   17  F  2  Y   -0.002801   0.001195  -0.001193  -0.000252  -0.001637
   18  F  2  Z    0.003080  -0.000068  -0.000088   0.000359   0.001463
   19  F  3  S    0.457635   0.883188  -0.022125   0.000027   0.000041
   20  F  3  S    0.013377   0.024511  -0.000148   0.000370   0.000433
   21  F  3  X    0.000245   0.000530  -0.000065   0.000034  -0.000085
   22  F  3  Y    0.000063   0.000361   0.000114  -0.000042  -0.000023
   23  F  3  Z    0.000799   0.001443  -0.000049  -0.000068  -0.000079
   24  F  3  S   -0.009272  -0.012746  -0.001489  -0.001935  -0.001465
   25  F  3  X   -0.000762  -0.001302   0.000155  -0.000886  -0.000400
   26  F  3  Y    0.000119  -0.001066  -0.001025   0.000001  -0.000496
   27  F  3  Z   -0.002947  -0.002990  -0.000612  -0.000439  -0.002139
   28  O  4  S    0.000067   0.000021   0.000045   0.995126   0.000070
   29  O  4  S    0.000691   0.000220   0.000536   0.029624   0.000284
   30  O  4  X    0.000028   0.000009   0.000073  -0.001723   0.000487
   31  O  4  Y    0.000050   0.000040   0.000053  -0.001492  -0.000140
   32  O  4  Z    0.000040  -0.000064   0.000017  -0.000473  -0.000044
   33  O  4  S   -0.003906  -0.001240  -0.002532  -0.019774  -0.001028
   34  O  4  X    0.002319   0.000736   0.001089   0.005510   0.000856
   35  O  4  Y    0.000407  -0.000239  -0.000865   0.001841   0.000889
   36  O  4  Z   -0.000238   0.001084  -0.000275   0.000584   0.000282
   37  C  5  S   -0.000278  -0.000088  -0.000156  -0.000131   0.994926
   38  C  5  S   -0.001388  -0.000441  -0.000682  -0.001110   0.031746
   39  C  5  X   -0.000432  -0.000137  -0.000267   0.000357  -0.000631
   40  C  5  Y   -0.000364   0.000094   0.000509  -0.000063  -0.000198
   41  C  5  Z    0.000094  -0.000630   0.000162  -0.000020  -0.000063
   42  C  5  S    0.015466   0.004912   0.009418   0.011648  -0.006386
   43  C  5  X   -0.000493  -0.000156  -0.001116   0.005937  -0.001159
   44  C  5  Y   -0.003922   0.000528   0.004553  -0.000208   0.000160
   45  C  5  Z    0.000529  -0.005417   0.001446  -0.000065   0.000050
   46  H  6  S    0.000152   0.000048   0.000032   0.000655   0.000467
   47  H  6  S   -0.001058  -0.000335   0.000218   0.001798   0.001329

                      6          7          8          9         10
                   -1.3623    -1.2635    -1.2625    -1.1101    -0.7202
                     A          A          A          A          A   
    1  F  1  S   -0.108152   0.000845  -0.193173   0.027216   0.070590
    2  F  1  S    0.227283  -0.001802   0.411760  -0.060605  -0.156487
    3  F  1  X    0.023685  -0.000165   0.037195   0.015848   0.087005
    4  F  1  Y   -0.071350  -0.003715  -0.087329   0.007562  -0.203893
    5  F  1  Z   -0.022593   0.013063  -0.027589   0.002398  -0.064562
    6  F  1  S    0.252657  -0.001995   0.457673  -0.060271  -0.218825
    7  F  1  X    0.013187  -0.000104   0.023176   0.011126   0.043858
    8  F  1  Y   -0.043474  -0.003590  -0.054693   0.004043  -0.110886
    9  F  1  Z   -0.013766   0.012170  -0.017255   0.001283  -0.035110
   10  F  2  S   -0.118227  -0.163510   0.087450   0.041493   0.060885
   11  F  2  S    0.249458   0.347181  -0.185791  -0.087640  -0.134340
   12  F  2  X    0.024552   0.030248  -0.017089   0.018911   0.057722
   13  F  2  Y    0.058646   0.059899  -0.020868  -0.007104   0.158714
   14  F  2  Z   -0.055115  -0.046268   0.036218   0.005757  -0.127288
   15  F  2  S    0.271039   0.390933  -0.209040  -0.112240  -0.189934
   16  F  2  X    0.013349   0.021072  -0.012304   0.009118   0.026687
   17  F  2  Y    0.034576   0.039460  -0.010862  -0.007348   0.089927
   18  F  2  Z   -0.032017  -0.029092   0.026005   0.009803  -0.070513
   19  F  3  S   -0.118212   0.162753   0.088870   0.041492   0.060886
   20  F  3  S    0.249426  -0.345573  -0.188809  -0.087635  -0.134342
   21  F  3  X    0.024523  -0.030077  -0.017337   0.018913   0.057656
   22  F  3  Y    0.016217  -0.022371   0.003594  -0.002496   0.056484
   23  F  3  Z    0.078830  -0.071971  -0.042263  -0.008790   0.195459
   24  F  3  S    0.271003  -0.389128  -0.212429  -0.112246  -0.189948
   25  F  3  X    0.013322  -0.020945  -0.012470   0.009119   0.026648
   26  F  3  Y    0.009844  -0.015568   0.005954  -0.000366   0.032931
   27  F  3  Z    0.046085  -0.046276  -0.027921  -0.012244   0.109431
   28  O  4  S   -0.034433  -0.000017   0.004366  -0.199172   0.044534
   29  O  4  S    0.072802   0.000043  -0.010351   0.436686  -0.101128
   30  O  4  X   -0.037273  -0.000004   0.000868  -0.099890  -0.174910
   31  O  4  Y   -0.013081  -0.003449   0.014245  -0.104880   0.124052
   32  O  4  Z   -0.004149   0.010674   0.004563  -0.033230   0.039245
   33  O  4  S    0.074603   0.000012  -0.006240   0.452936  -0.127182
   34  O  4  X   -0.021518  -0.000019   0.004849  -0.063409  -0.069112
   35  O  4  Y   -0.005393  -0.003942   0.008502  -0.047235   0.049252
   36  O  4  Z   -0.001712   0.012329   0.002753  -0.014970   0.015583
   37  C  5  S   -0.110966   0.000023  -0.003906  -0.041077  -0.142108
   38  C  5  S    0.243467  -0.000053   0.007933   0.093587   0.386925
   39  C  5  X   -0.046952   0.000023  -0.012040   0.176194  -0.012590
   40  C  5  Y   -0.010537  -0.050752   0.162112  -0.003232   0.022424
   41  C  5  Z   -0.003342   0.157798   0.052104  -0.000988   0.007105
   42  C  5  S   -0.019384  -0.000008   0.004555   0.008788   0.153881
   43  C  5  X    0.009516  -0.000006   0.005539  -0.023190   0.025083
   44  C  5  Y   -0.004349   0.011924  -0.036664  -0.016312   0.000364
   45  C  5  Z   -0.001374  -0.037141  -0.011789  -0.005175   0.000109
   46  H  6  S    0.016958   0.000035  -0.008009   0.135955  -0.124992
   47  H  6  S   -0.000643   0.000046  -0.010475  -0.009848  -0.053651

                     11         12         13         14         15
                   -0.6417    -0.6221    -0.6118    -0.4950    -0.4843
                     A          A          A          A          A   
    1  F  1  S    0.023469  -0.000003  -0.055961   0.003785  -0.000009
    2  F  1  S   -0.046975   0.000005   0.118257  -0.016985   0.000036
    3  F  1  X    0.190819  -0.000008  -0.026137   0.003791  -0.000509
    4  F  1  Y   -0.048167  -0.057395   0.345765  -0.135904  -0.110442
    5  F  1  Z   -0.015243   0.181320   0.109482  -0.043228   0.349416
    6  F  1  S   -0.101351   0.000019   0.216113   0.033336  -0.000077
    7  F  1  X    0.102106  -0.000008  -0.013217  -0.013932  -0.000380
    8  F  1  Y   -0.016404  -0.034981   0.190584  -0.113182  -0.076080
    9  F  1  Z   -0.005193   0.110495   0.060339  -0.035987   0.240731
   10  F  2  S   -0.041099   0.053370   0.012373   0.000541  -0.003475
   11  F  2  S    0.088809  -0.114853  -0.025122  -0.003167   0.014316
   12  F  2  X    0.017945   0.145426   0.171798   0.308629  -0.322299
   13  F  2  Y   -0.103943   0.284944  -0.068326   0.039294   0.130653
   14  F  2  Z    0.231676  -0.118614  -0.116359   0.172218   0.154789
   15  F  2  S    0.148006  -0.195692  -0.052580   0.008544  -0.024565
   16  F  2  X    0.010092   0.081219   0.093470   0.199770  -0.237289
   17  F  2  Y   -0.055091   0.162440  -0.044109   0.042253   0.087777
   18  F  2  Z    0.130530  -0.061483  -0.067920   0.122649   0.110140
   19  F  3  S   -0.041084  -0.053381   0.012382   0.000536   0.003474
   20  F  3  S    0.088775   0.114873  -0.025134  -0.003146  -0.014328
   21  F  3  X    0.018083  -0.145295   0.171775   0.308203   0.322627
   22  F  3  Y    0.048423  -0.164692  -0.122819   0.131472  -0.194709
   23  F  3  Z   -0.249184  -0.261140   0.055934  -0.118008   0.051392
   24  F  3  S    0.147958   0.195745  -0.052617   0.008544   0.024697
   25  F  3  X    0.010172  -0.081142   0.093439   0.199443   0.237531
   26  F  3  Y    0.030120  -0.097427  -0.075135   0.105316  -0.134356
   27  F  3  Z   -0.138397  -0.143849   0.030204  -0.075840   0.039593
   28  O  4  S   -0.000226   0.000006   0.039864   0.065498   0.000006
   29  O  4  S    0.006079  -0.000012  -0.083017  -0.144154  -0.000028
   30  O  4  X   -0.196492  -0.000071  -0.214369   0.026200  -0.000039
   31  O  4  Y    0.218750  -0.031918   0.054768  -0.293023   0.028235
   32  O  4  Z    0.069217   0.100897   0.017282  -0.092707  -0.089292
   33  O  4  S   -0.030352  -0.000032  -0.179119  -0.304513   0.000045
   34  O  4  X   -0.069178  -0.000028  -0.081325   0.032754  -0.000027
   35  O  4  Y    0.099597  -0.017718   0.028949  -0.179716   0.030057
   36  O  4  Z    0.031515   0.055995   0.009135  -0.056834  -0.095286
   37  C  5  S    0.008151   0.000002  -0.009714  -0.011711  -0.000001
   38  C  5  S   -0.030889  -0.000002   0.010937   0.029259   0.000038
   39  C  5  X    0.269507  -0.000005   0.259443   0.007817   0.000050
   40  C  5  Y    0.244627  -0.116725  -0.267519   0.033224   0.012833
   41  C  5  Z    0.077476   0.368549  -0.084736   0.010525  -0.041001
   42  C  5  S    0.033393  -0.000006   0.071089   0.015077  -0.000080
   43  C  5  X    0.086406   0.000023   0.117481   0.132614  -0.000036
   44  C  5  Y    0.064868  -0.023005  -0.074045  -0.034492  -0.024097
   45  C  5  Z    0.020559   0.072642  -0.023414  -0.010897   0.076937
   46  H  6  S   -0.159133  -0.000028  -0.090145   0.150775  -0.000025
   47  H  6  S   -0.063636  -0.000015  -0.038898   0.083949  -0.000036

                     16         17         18         19         20
                   -0.4806    -0.4566    -0.4466    -0.4313    -0.4102
                     A          A          A          A          A   
    1  F  1  S   -0.006296   0.000001  -0.000407   0.000002   0.000475
    2  F  1  S    0.029635  -0.000002   0.006970   0.000001   0.002333
    3  F  1  X   -0.314526  -0.000237   0.532100   0.000038  -0.024480
    4  F  1  Y    0.186133  -0.088488   0.261809  -0.128883  -0.049091
    5  F  1  Z    0.058246   0.279290   0.082969   0.407236  -0.015594
    6  F  1  S   -0.074199  -0.000011  -0.034346  -0.000040  -0.014066
    7  F  1  X   -0.229457  -0.000153   0.343375   0.000014  -0.027020
    8  F  1  Y    0.146764  -0.051751   0.182161  -0.085833  -0.031474
    9  F  1  Z    0.046003   0.163336   0.057714   0.271233  -0.010001
   10  F  2  S    0.000631  -0.000182  -0.000998   0.000800  -0.002418
   11  F  2  S   -0.006216   0.011146  -0.005498  -0.001947  -0.001038
   12  F  2  X   -0.006182   0.243695  -0.014308  -0.003651   0.287048
   13  F  2  Y    0.316387  -0.127145   0.200573  -0.265975  -0.034113
   14  F  2  Z    0.198144   0.324163   0.015680  -0.295143  -0.055394
   15  F  2  S    0.031425  -0.072158   0.052577  -0.004283   0.048060
   16  F  2  X    0.013693   0.154355  -0.013181  -0.002857   0.193158
   17  F  2  Y    0.210511  -0.112238   0.139568  -0.179300  -0.017596
   18  F  2  Z    0.123993   0.224086  -0.016180  -0.197989  -0.056312
   19  F  3  S    0.000624   0.000185  -0.000997  -0.000799  -0.002418
   20  F  3  S   -0.006183  -0.011153  -0.005507   0.001943  -0.001036
   21  F  3  X   -0.007051  -0.243918  -0.014479   0.003752   0.287076
   22  F  3  Y    0.373277  -0.082686   0.172784   0.387561  -0.059903
   23  F  3  Z    0.019907   0.338162   0.102873  -0.088136   0.025742
   24  F  3  S    0.031318   0.072127   0.052603   0.004303   0.048061
   25  F  3  X    0.013053  -0.154489  -0.013295   0.002938   0.193162
   26  F  3  Y    0.243844  -0.037263   0.104643   0.260683  -0.046880
   27  F  3  Z    0.019650   0.247771   0.093740  -0.058611   0.035968
   28  O  4  S   -0.025919  -0.000020   0.007501  -0.000007  -0.057424
   29  O  4  S    0.049983   0.000044  -0.008336   0.000021   0.140620
   30  O  4  X   -0.040909  -0.000059   0.168422   0.000078   0.350941
   31  O  4  Y    0.115446  -0.039148  -0.053854   0.000470   0.322634
   32  O  4  Z    0.036676   0.123984  -0.016965  -0.001365   0.102206
   33  O  4  S    0.155217   0.000095  -0.097772  -0.000009   0.137918
   34  O  4  X   -0.034371  -0.000040   0.129101   0.000067   0.264898
   35  O  4  Y    0.016583  -0.022797  -0.025634   0.000987   0.196190
   36  O  4  Z    0.005394   0.072186  -0.008054  -0.003061   0.062153
   37  C  5  S    0.004162   0.000000   0.005568   0.000003   0.021093
   38  C  5  S   -0.004912  -0.000015  -0.010264  -0.000029  -0.055783
   39  C  5  X    0.015782   0.000016  -0.075128  -0.000036  -0.173125
   40  C  5  Y   -0.092141   0.018189  -0.025822   0.000093  -0.004022
   41  C  5  Z   -0.029099  -0.057466  -0.008210  -0.000341  -0.001316
   42  C  5  S   -0.020360   0.000024  -0.015581   0.000047  -0.022975
   43  C  5  X   -0.072655  -0.000085   0.099842   0.000020   0.097070
   44  C  5  Y    0.165279  -0.052758   0.112324  -0.002417   0.060879
   45  C  5  Z    0.052158   0.166560   0.035629   0.007842   0.019313
   46  H  6  S   -0.085880  -0.000062   0.067581  -0.000003  -0.106602
   47  H  6  S   -0.056324  -0.000029   0.037706   0.000005  -0.026826

                     21         22         23         24         25
                   -0.3601     0.0454     0.1415     0.1544     0.1630
                     A          A          A          A          A   
    1  F  1  S    0.000000   0.023001   0.040397   0.072913   0.000031
    2  F  1  S   -0.000000  -0.051654  -0.098373  -0.147464  -0.000072
    3  F  1  X   -0.000004  -0.089129   0.058244  -0.143018  -0.000044
    4  F  1  Y    0.022626   0.083687   0.227883   0.308052   0.061778
    5  F  1  Z   -0.071437   0.026496   0.072181   0.097627  -0.194594
    6  F  1  S   -0.000004  -0.187464  -0.309980  -0.710265  -0.000281
    7  F  1  X    0.000003  -0.072429   0.044213  -0.185705  -0.000065
    8  F  1  Y    0.020058   0.117879   0.275508   0.423697   0.065869
    9  F  1  Z   -0.063326   0.037334   0.087272   0.134265  -0.207397
   10  F  2  S    0.005661   0.013348   0.063382  -0.020786   0.054749
   11  F  2  S   -0.008312  -0.038126  -0.143096   0.035989  -0.112393
   12  F  2  X   -0.191152  -0.052566   0.005133   0.107854  -0.131336
   13  F  2  Y   -0.048970   0.002659  -0.224855  -0.068304  -0.244579
   14  F  2  Z   -0.009870   0.012936   0.253719  -0.169453   0.080439
   15  F  2  S   -0.057958  -0.074994  -0.541430   0.235404  -0.528187
   16  F  2  X   -0.132064  -0.039077  -0.019558   0.131426  -0.165548
   17  F  2  Y   -0.052142  -0.030250  -0.288976  -0.044142  -0.319155
   18  F  2  Z   -0.000740   0.014623   0.319826  -0.213324   0.135046
   19  F  3  S   -0.005662   0.013349   0.063379  -0.020739  -0.054770
   20  F  3  S    0.008310  -0.038112  -0.143078   0.035880   0.112421
   21  F  3  X    0.191183  -0.052540   0.005278   0.107677   0.131318
   22  F  3  Y    0.045690   0.009596  -0.037792  -0.153541   0.153544
   23  F  3  Z    0.020196  -0.009087  -0.336882   0.099105   0.206729
   24  F  3  S    0.057982  -0.075046  -0.541440   0.234968   0.528450
   25  F  3  X    0.132088  -0.039084  -0.019405   0.131225   0.165530
   26  F  3  Y    0.043035  -0.016328  -0.052146  -0.159081   0.183059
   27  F  3  Z    0.029471  -0.029414  -0.427869   0.148831   0.294387
   28  O  4  S   -0.000001   0.079728  -0.006450  -0.005032   0.000008
   29  O  4  S    0.000000  -0.161877  -0.002718   0.001469  -0.000016
   30  O  4  X   -0.000118  -0.012717   0.047642  -0.072246   0.000054
   31  O  4  Y   -0.187574   0.292938  -0.008122  -0.159782   0.061790
   32  O  4  Z    0.592379   0.092765  -0.002568  -0.050538  -0.195331
   33  O  4  S    0.000019  -0.893163   0.156802   0.176017  -0.000058
   34  O  4  X   -0.000087  -0.055615   0.028748  -0.118553   0.000096
   35  O  4  Y   -0.130964   0.474069  -0.008022  -0.220923   0.078112
   36  O  4  Z    0.413590   0.150106  -0.002529  -0.069877  -0.246983
   37  C  5  S    0.000000  -0.036827  -0.151780  -0.020938  -0.000017
   38  C  5  S    0.000013   0.060252   0.381486   0.080675   0.000080
   39  C  5  X   -0.000001   0.075651  -0.474597  -0.186180  -0.000161
   40  C  5  Y   -0.005059   0.107512  -0.197353   0.718349  -0.245466
   41  C  5  Z    0.015968   0.034034  -0.062546   0.227158   0.776088
   42  C  5  S   -0.000035   0.280457   1.210816   0.062849   0.000068
   43  C  5  X   -0.000031  -0.051127  -0.524448  -0.277684  -0.000127
   44  C  5  Y   -0.027340   0.125683  -0.236779   0.898694  -0.275011
   45  C  5  Z    0.086377   0.039756  -0.075115   0.284160   0.869678
   46  H  6  S    0.000001   0.177042  -0.048347   0.072543   0.000027
   47  H  6  S   -0.000003   1.442555  -0.185051  -0.071601  -0.000028

                     26         27         28         29         30
                    0.1948     0.4887     0.5063     0.5082     0.6162
                     A          A          A          A          A   
    1  F  1  S    0.020307  -0.014303  -0.000206   0.033803   0.021629
    2  F  1  S   -0.046981   0.023071   0.000104  -0.023747  -0.082569
    3  F  1  X   -0.156549  -0.167579  -0.000336   0.073506  -0.088871
    4  F  1  Y    0.047037   0.025848   0.050720  -0.239270  -0.079462
    5  F  1  Z    0.014886   0.008047  -0.154717  -0.076920  -0.025162
    6  F  1  S   -0.179505   0.301968   0.006040  -0.954142  -0.199619
    7  F  1  X   -0.201181  -0.173064   0.000950  -0.124062  -0.138763
    8  F  1  Y    0.066900  -0.170505   0.065578   0.194058   0.168590
    9  F  1  Z    0.021170  -0.054210  -0.210966   0.059941   0.053382
   10  F  2  S    0.010545  -0.020222   0.022816  -0.004084   0.036947
   11  F  2  S   -0.031082   0.029467  -0.015460  -0.012591  -0.098312
   12  F  2  X   -0.134081  -0.162541   0.017594   0.019964  -0.044903
   13  F  2  Y   -0.050849  -0.092350   0.086493  -0.137563   0.135552
   14  F  2  Z    0.003580   0.043249  -0.183775  -0.059126  -0.064356
   15  F  2  S   -0.060159   0.471898  -0.664871   0.225759  -0.621109
   16  F  2  X   -0.159329  -0.152915  -0.098451   0.070364  -0.212664
   17  F  2  Y   -0.042409   0.124557  -0.161304  -0.133809  -0.170459
   18  F  2  Z   -0.002645  -0.153025  -0.007618  -0.135727   0.228705
   19  F  3  S    0.010557  -0.020251  -0.022722  -0.004380   0.036946
   20  F  3  S   -0.031107   0.029474   0.015535  -0.012427  -0.098258
   21  F  3  X   -0.134103  -0.162562  -0.017602   0.019690  -0.044842
   22  F  3  Y   -0.039531  -0.050519   0.037115  -0.146030   0.073719
   23  F  3  Z   -0.032293  -0.088862  -0.199495  -0.033483   0.130684
   24  F  3  S   -0.060261   0.472819   0.661102   0.234519  -0.621284
   25  F  3  X   -0.159365  -0.152846   0.097711   0.071658  -0.212673
   26  F  3  Y   -0.036215   0.013930   0.138663  -0.185763  -0.007648
   27  F  3  Z   -0.022374   0.196866   0.085873   0.035135  -0.285240
   28  O  4  S    0.072934   0.012499  -0.000130   0.018418   0.030786
   29  O  4  S   -0.165807   0.021058   0.000598  -0.089462  -0.033358
   30  O  4  X    0.487738  -0.148633   0.000831  -0.106589  -0.041020
   31  O  4  Y   -0.116269   0.000977   0.062095  -0.087370  -0.206209
   32  O  4  Z   -0.036693   0.000160  -0.194155  -0.029115  -0.065262
   33  O  4  S   -0.739427  -0.747405   0.000966  -0.085580  -1.146678
   34  O  4  X    0.841155   0.240964  -0.000576   0.079244   0.691748
   35  O  4  Y   -0.217338  -0.050478   0.071538  -0.225418   0.132468
   36  O  4  Z   -0.068634  -0.016136  -0.220574  -0.072968   0.042084
   37  C  5  S   -0.127495  -0.012420  -0.000060   0.009542  -0.033556
   38  C  5  S    0.380731   0.549428   0.002048  -0.390082  -1.561496
   39  C  5  X    0.615784  -0.777449  -0.000057   0.107459  -0.329317
   40  C  5  Y    0.049091  -0.175219   0.264606  -0.802702   0.174021
   41  C  5  Z    0.015572  -0.056299  -0.816555  -0.260115   0.055126
   42  C  5  S    1.188069  -0.711261  -0.003510   0.662451   3.620621
   43  C  5  X    0.874287   1.941043   0.000414  -0.307352   1.277110
   44  C  5  Y    0.138312   0.323426  -0.597580   1.863712  -0.648033
   45  C  5  Z    0.043903   0.104240   1.843194   0.603581  -0.205163
   46  H  6  S   -0.056230   0.117605  -0.000165   0.011375   0.014022
   47  H  6  S   -0.498147  -0.206219  -0.001670   0.264157  -0.673943

                     31         32         33         34         35
                    0.7894     0.8919     0.9397     1.0088     1.1426
                     A          A          A          A          A   
    1  F  1  S    0.001505  -0.000001  -0.014220  -0.000294  -0.000003
    2  F  1  S   -0.035395   0.000014   0.075426   0.062748   0.000016
    3  F  1  X   -0.057060  -0.000051  -0.192810   0.297980   0.000073
    4  F  1  Y   -0.011195  -0.071249  -0.016204   0.051272   0.138870
    5  F  1  Z   -0.003565   0.224952  -0.005168   0.016305  -0.438378
    6  F  1  S    0.054037  -0.000016   0.137514  -0.182569   0.000036
    7  F  1  X    0.057783   0.000026   0.216425  -0.380240  -0.000102
    8  F  1  Y   -0.025491   0.031804  -0.026721   0.041374  -0.187873
    9  F  1  Z   -0.008060  -0.100423  -0.008420   0.013022   0.593055
   10  F  2  S    0.002555  -0.010388  -0.001426   0.010915  -0.038756
   11  F  2  S   -0.006772   0.020709   0.055598  -0.031255   0.283010
   12  F  2  X    0.034070  -0.233518   0.249659  -0.054639   0.149034
   13  F  2  Y   -0.018522   0.085015   0.100277  -0.054785  -0.466674
   14  F  2  Z    0.019453   0.080203   0.189628  -0.196824   0.095690
   15  F  2  S   -0.064846   0.239876  -0.169300  -0.197893   0.037747
   16  F  2  X   -0.037610   0.240644  -0.247610  -0.033777  -0.109226
   17  F  2  Y    0.003573   0.005440  -0.095614  -0.002799   0.659186
   18  F  2  Z    0.005260  -0.073779  -0.099665   0.269285  -0.153850
   19  F  3  S    0.002555   0.010387  -0.001423   0.010917   0.038772
   20  F  3  S   -0.006778  -0.020731   0.055565  -0.031268  -0.283098
   21  F  3  X    0.034068   0.233409   0.249641  -0.054669  -0.149057
   22  F  3  Y   -0.003939  -0.115740   0.191175  -0.158112   0.326423
   23  F  3  Z   -0.026550   0.016722  -0.097203   0.129373   0.347060
   24  F  3  S   -0.064830  -0.239798  -0.169294  -0.197891  -0.037816
   25  F  3  X   -0.037601  -0.240508  -0.247550  -0.033723   0.109208
   26  F  3  Y    0.005952   0.038074  -0.135577   0.152754  -0.450302
   27  F  3  Z   -0.002262  -0.063519   0.026321  -0.221806  -0.505563
   28  O  4  S    0.024903  -0.000006   0.053564   0.038117  -0.000003
   29  O  4  S   -0.155887   0.000032  -0.314360  -0.370012   0.000034
   30  O  4  X    0.342576   0.000192  -0.474138  -0.632026   0.000099
   31  O  4  Y    0.499576   0.252976  -0.346189   0.494518   0.081004
   32  O  4  Z    0.158253  -0.798795  -0.109839   0.156472  -0.255791
   33  O  4  S    0.202160   0.000019   0.044969   0.095713  -0.000105
   34  O  4  X   -0.476205  -0.000270   0.705929   1.367443  -0.000134
   35  O  4  Y   -0.092858  -0.334149   0.789829  -0.851920  -0.153473
   36  O  4  Z   -0.029499   1.054984   0.250403  -0.269493   0.484619
   37  C  5  S   -0.021623   0.000001   0.000827  -0.012926  -0.000000
   38  C  5  S   -0.291807  -0.000001   0.293748  -0.098594   0.000002
   39  C  5  X    0.011686  -0.000026   0.187760   0.034497  -0.000021
   40  C  5  Y   -0.057103  -0.013433  -0.015309   0.127051   0.044312
   41  C  5  Z   -0.018089   0.042400  -0.004813   0.040239  -0.139958
   42  C  5  S    0.288765  -0.000092   0.168130   1.542101   0.000150
   43  C  5  X    0.008483   0.000114   0.071356   0.671556   0.000209
   44  C  5  Y   -0.130223   0.209095  -0.467852  -0.181994   0.199975
   45  C  5  Z   -0.041218  -0.660032  -0.148201  -0.057509  -0.631876
   46  H  6  S    1.125762  -0.000048   0.644206   0.071397  -0.000064
   47  H  6  S   -0.980123   0.000016  -0.348505  -1.129241   0.000049

                     36         37         38         39         40
                    1.1616     1.1847     1.2482     1.3082     1.3325
                     A          A          A          A          A   
    1  F  1  S    0.058252  -0.003109  -0.000001   0.016022  -0.000007
    2  F  1  S   -0.395108  -0.036794   0.000011  -0.200475   0.000089
    3  F  1  X    0.046868   0.120932   0.000083   0.697836  -0.000197
    4  F  1  Y   -0.600953   0.214820   0.022207  -0.060588   0.166296
    5  F  1  Z   -0.190368   0.067918  -0.069998  -0.019261  -0.524574
    6  F  1  S   -0.088822   0.099459   0.000002   0.360784  -0.000231
    7  F  1  X   -0.178953  -0.132240  -0.000063  -0.861318   0.000247
    8  F  1  Y    0.925868  -0.348686  -0.017218   0.076458  -0.214409
    9  F  1  Z    0.293268  -0.110280   0.054219   0.024325   0.676344
   10  F  2  S   -0.008123  -0.034761  -0.024172  -0.007831  -0.000286
   11  F  2  S    0.083141   0.209061   0.238383   0.109263  -0.000624
   12  F  2  X   -0.027441  -0.124579  -0.583871  -0.215596   0.000391
   13  F  2  Y    0.213131  -0.308096  -0.133476   0.077844   0.358760
   14  F  2  Z    0.287346   0.442145   0.070305  -0.052766   0.408508
   15  F  2  S   -0.039191   0.033017  -0.253691  -0.126918   0.005810
   16  F  2  X    0.030000   0.198590   0.731355   0.284461   0.000762
   17  F  2  Y   -0.309128   0.507328   0.188503  -0.082473  -0.461173
   18  F  2  Z   -0.377959  -0.674471  -0.131060   0.112330  -0.529079
   19  F  3  S   -0.008112  -0.034743   0.024179  -0.007839   0.000295
   20  F  3  S    0.083058   0.208913  -0.238422   0.109361   0.000496
   21  F  3  X   -0.027296  -0.124223   0.583720  -0.215860  -0.000451
   22  F  3  Y    0.339725   0.002675   0.068638   0.032888  -0.528357
   23  F  3  Z   -0.112132  -0.538781   0.134768   0.087960   0.127564
   24  F  3  S   -0.039175   0.033064   0.253715  -0.127054  -0.005601
   25  F  3  X    0.029804   0.198065  -0.731066   0.284799  -0.000637
   26  F  3  Y   -0.470400   0.026445  -0.078671  -0.002283   0.681353
   27  F  3  Z    0.130898   0.843384  -0.216297  -0.139315  -0.167204
   28  O  4  S   -0.011066   0.012806   0.000001   0.018815  -0.000011
   29  O  4  S    0.166687  -0.366386   0.000065  -0.146025   0.000154
   30  O  4  X   -0.093121  -0.027381  -0.000068   0.123731  -0.000089
   31  O  4  Y    0.249101   0.043909  -0.090748  -0.383036   0.001614
   32  O  4  Z    0.078873   0.013913   0.286125  -0.121345  -0.004554
   33  O  4  S   -0.246377   0.543858  -0.000003   0.135555  -0.000114
   34  O  4  X    0.318979  -0.020182   0.000015  -0.390752   0.000200
   35  O  4  Y   -0.589120  -0.226067   0.155203   0.973864  -0.003253
   36  O  4  Z   -0.186501  -0.071599  -0.488909   0.308443   0.008882
   37  C  5  S    0.000227  -0.011192   0.000007   0.010377  -0.000002
   38  C  5  S    0.196784  -0.742781   0.000256   0.334662  -0.000034
   39  C  5  X   -0.066578   0.096838   0.000087  -0.031117   0.000044
   40  C  5  Y    0.202792   0.150383   0.066922   0.060544   0.000457
   41  C  5  Z    0.064180   0.047584  -0.211548   0.019217  -0.001839
   42  C  5  S    0.564966  -0.265249  -0.000282  -0.522410   0.000133
   43  C  5  X    0.123162   0.148978  -0.000323  -0.198103  -0.000049
   44  C  5  Y    0.554467   0.142386  -0.069798  -0.340565   0.002823
   45  C  5  Z    0.175591   0.045048   0.220357  -0.107986  -0.007706
   46  H  6  S   -0.142420  -0.161157   0.000215   0.453790  -0.000119
   47  H  6  S   -0.196563  -0.165438   0.000100   0.188481  -0.000070

                     41         42         43         44         45
                    1.4634     1.4689     1.5308     1.7019     2.0298
                     A          A          A          A          A   
    1  F  1  S    0.001753  -0.000001  -0.001439  -0.015216  -0.000043
    2  F  1  S    0.100277   0.000075   0.035571   0.242597   0.001082
    3  F  1  X   -0.016998  -0.000143   0.436147  -0.142349   0.000152
    4  F  1  Y    0.484697  -0.160834   0.158536  -0.128456   0.040179
    5  F  1  Z    0.153417   0.508501   0.050344  -0.040713  -0.127482
    6  F  1  S   -0.643910  -0.000326  -0.076158  -0.293726  -0.001866
    7  F  1  X   -0.020342   0.000238  -0.881918   0.437142  -0.000467
    8  F  1  Y   -0.600732   0.282090  -0.285991   0.252971  -0.144006
    9  F  1  Z   -0.190038  -0.891475  -0.090851   0.080193   0.456613
   10  F  2  S    0.000703   0.002269  -0.000459  -0.011559   0.048498
   11  F  2  S   -0.065984   0.072650  -0.061096   0.102136  -1.202648
   12  F  2  X   -0.197451   0.119043   0.509252  -0.045347  -0.117002
   13  F  2  Y    0.465188  -0.145143   0.091680   0.141695  -0.221942
   14  F  2  Z    0.162616   0.489284   0.087121  -0.063320   0.106397
   15  F  2  S    0.281526  -0.513968   0.316881   0.090005   2.060104
   16  F  2  X    0.354981  -0.231766  -0.940197   0.327758   0.368402
   17  F  2  Y   -0.740149   0.095776  -0.090645  -0.225592   0.690573
   18  F  2  Z   -0.358398  -0.720832  -0.247438   0.053019  -0.290277
   19  F  3  S    0.000706  -0.002266  -0.000454  -0.011557  -0.048459
   20  F  3  S   -0.065945  -0.072754  -0.061220   0.102070   1.201582
   21  F  3  X   -0.197466  -0.119491   0.509352  -0.045366   0.116849
   22  F  3  Y    0.474380  -0.162655   0.124947   0.079365   0.120340
   23  F  3  Z    0.134303   0.483678  -0.018198   0.133342   0.214587
   24  F  3  S    0.281106   0.514255   0.317160   0.090147  -2.058164
   25  F  3  X    0.354898   0.232512  -0.940345   0.327793  -0.367870
   26  F  3  Y   -0.812158   0.336038  -0.216268  -0.153891  -0.398003
   27  F  3  Z   -0.132287  -0.644528   0.149714  -0.173106  -0.634288
   28  O  4  S   -0.008941  -0.000005   0.011140   0.020420  -0.000002
   29  O  4  S    0.105842   0.000076  -0.070738  -1.765885   0.000038
   30  O  4  X   -0.082673  -0.000075   0.197343   0.295786   0.000025
   31  O  4  Y    0.132174  -0.035326   0.116911   0.025836   0.009806
   32  O  4  Z    0.041772   0.111685   0.037081   0.008253  -0.030962
   33  O  4  S    0.054454   0.000056  -0.815058   3.988184  -0.000019
   34  O  4  X    0.113029   0.000121   0.124884  -1.551728  -0.000165
   35  O  4  Y   -0.494506   0.138043  -0.512727  -0.433713  -0.115482
   36  O  4  Z   -0.156348  -0.436390  -0.162423  -0.137690   0.363817
   37  C  5  S   -0.001499   0.000000  -0.006902   0.051136   0.000006
   38  C  5  S   -0.070639  -0.000044  -0.086871   0.334036   0.000078
   39  C  5  X    0.067826   0.000131  -0.232319  -0.324184   0.000069
   40  C  5  Y   -0.292370   0.098291  -0.062791   0.012644   0.108440
   41  C  5  Z   -0.092410  -0.310760  -0.019969   0.003931  -0.341563
   42  C  5  S    0.054620  -0.000047   0.549167  -2.344557  -0.000211
   43  C  5  X   -0.305918  -0.000557   1.834429  -1.978680   0.000215
   44  C  5  Y    1.248108  -0.406792   0.508890   0.308596   0.499590
   45  C  5  Z    0.394619   1.286229   0.161767   0.097440  -1.572745
   46  H  6  S   -0.037778   0.000023  -0.344198  -0.538399  -0.000005
   47  H  6  S   -0.064117   0.000008  -0.061838   0.018955   0.000154

                     46         47
                    2.0537     2.4975
                     A          A   
    1  F  1  S    0.055923  -0.017504
    2  F  1  S   -1.405849   1.105288
    3  F  1  X   -0.156409   0.037986
    4  F  1  Y    0.254020  -0.111420
    5  F  1  Z    0.080348  -0.035284
    6  F  1  S    2.416878  -2.428172
    7  F  1  X    0.474728  -0.296690
    8  F  1  Y   -0.768756   0.852680
    9  F  1  Z   -0.243055   0.270006
   10  F  2  S   -0.027083  -0.018486
   11  F  2  S    0.687147   1.167542
   12  F  2  X    0.083693   0.033098
   13  F  2  Y    0.031107   0.093861
   14  F  2  Z   -0.167160  -0.084741
   15  F  2  S   -1.198322  -2.593253
   16  F  2  X   -0.256278  -0.279830
   17  F  2  Y   -0.039950  -0.695263
   18  F  2  Z    0.564617   0.641820
   19  F  3  S   -0.027157  -0.018488
   20  F  3  S    0.688988   1.167559
   21  F  3  X    0.083815   0.033057
   22  F  3  Y   -0.070633   0.027956
   23  F  3  Z    0.154959   0.123347
   24  F  3  S   -1.201463  -2.593266
   25  F  3  X   -0.256640  -0.279517
   26  F  3  Y    0.291824  -0.198954
   27  F  3  Z   -0.485748  -0.925175
   28  O  4  S    0.002087   0.019720
   29  O  4  S   -0.120416   0.562008
   30  O  4  X   -0.017242  -0.000881
   31  O  4  Y    0.014646   0.046949
   32  O  4  Z    0.004605   0.014864
   33  O  4  S    0.182566  -2.030892
   34  O  4  X    0.074547   0.990182
   35  O  4  Y    0.215496  -0.063799
   36  O  4  Z    0.068582  -0.020005
   37  C  5  S   -0.002259  -0.146290
   38  C  5  S   -0.055928  -0.429591
   39  C  5  X   -0.013608  -0.165605
   40  C  5  Y   -0.333051  -0.001959
   41  C  5  Z   -0.105788  -0.000668
   42  C  5  S    0.111503   5.469004
   43  C  5  X    0.125592   0.139875
   44  C  5  Y   -1.605433  -0.147536
   45  C  5  Z   -0.509757  -0.046675
   46  H  6  S   -0.038200   0.106709
   47  H  6  S   -0.219951  -0.265708
 ...... END OF RHF CALCULATION ......
 STEP CPU TIME =     4.62 TOTAL CPU TIME =          4.7 (      0.1 MIN)
 TOTAL WALL CLOCK TIME=          4.9 SECONDS, CPU UTILIZATION IS    96.50%

     ---------------------------------------------------------------------
     PROPERTIES FOR THE B3LYP    DFT FUNCTIONAL (RHF  TYPE) DENSITY MATRIX
     ---------------------------------------------------------------------

          -----------------
          ENERGY COMPONENTS
          -----------------

         WAVEFUNCTION NORMALIZATION =       1.0000000000

                ONE ELECTRON ENERGY =    -976.7295521766
                TWO ELECTRON ENERGY =     360.0178016263
           NUCLEAR REPULSION ENERGY =     203.5343058370
                                      ------------------
                       TOTAL ENERGY =    -413.1774447132

 ELECTRON-ELECTRON POTENTIAL ENERGY =     360.0178016263
  NUCLEUS-ELECTRON POTENTIAL ENERGY =   -1388.3885101425
   NUCLEUS-NUCLEUS POTENTIAL ENERGY =     203.5343058370
                                      ------------------
             TOTAL POTENTIAL ENERGY =    -824.8364026791
               TOTAL KINETIC ENERGY =     411.6589579659
                 VIRIAL RATIO (V/T) =       2.0036887008

          ---------------------------------------
          MULLIKEN AND LOWDIN POPULATION ANALYSES
          ---------------------------------------

     ATOMIC MULLIKEN POPULATION IN EACH MOLECULAR ORBITAL

                      1          2          3          4          5

                  2.000000   2.000000   2.000000   2.000000   2.000000

    1             0.001675   0.000192   1.996683  -0.000007  -0.000634
    2             1.573845   0.423734   0.000910  -0.000007  -0.000598
    3             0.422520   1.574976   0.000992  -0.000007  -0.000598
    4            -0.000051  -0.000014  -0.000023   1.997739  -0.000307
    5             0.002025   0.001114   0.001438   0.001970   2.002059
    6            -0.000014  -0.000001   0.000000   0.000313   0.000078

                      6          7          8          9         10

                  2.000000   2.000000   2.000000   2.000000   2.000000

    1             0.490876   0.003296   1.325444   0.024840   0.427671
    2             0.575493   0.947846   0.273132   0.055957   0.347380
    3             0.575359   0.939146   0.281965   0.055955   0.347365
    4             0.079501   0.003869   0.003887   1.574855   0.292903
    5             0.276356   0.105843   0.113410   0.171805   0.491407
    6             0.002414   0.000000   0.002162   0.116588   0.093274

                     11         12         13         14         15

                  2.000000   2.000000   2.000000   2.000000   2.000000

    1             0.206178   0.184255   0.705169   0.089067   0.609498
    2             0.364680   0.631513   0.233600   0.568703   0.655710
    3             0.364482   0.631635   0.233572   0.567559   0.654510
    4             0.417432   0.064888   0.275889   0.608796   0.062086
    5             0.512127   0.487708   0.510370   0.044832   0.018196
    6             0.135100   0.000000   0.041401   0.121044   0.000000

                     16         17         18         19         20

                  2.000000   2.000000   2.000000   2.000000   2.000000

    1             0.575251   0.346916   1.481275   0.734257   0.011106
    2             0.603639   0.736630   0.156520   0.632573   0.334444
    3             0.605337   0.736856   0.156390   0.633052   0.334583
    4             0.072457   0.086005   0.121093   0.000025   1.172975
    5             0.104482   0.093593   0.065126   0.000093   0.110048
    6             0.038833   0.000000   0.019598   0.000000   0.036844

                     21

                  2.000000

    1             0.021958
    2             0.133479
    3             0.133522
    4             1.676022
    5             0.035019
    6             0.000000

               ----- POPULATIONS IN EACH AO -----
                             MULLIKEN      LOWDIN
              1  F  1  S      1.99734     1.99455
              2  F  1  S      0.93967     0.94639
              3  F  1  X      1.16362     1.12395
              4  F  1  Y      0.96515     0.92167
              5  F  1  Z      1.17378     1.13457
              6  F  1  S      1.05762     0.84952
              7  F  1  X      0.68040     0.74167
              8  F  1  Y      0.56783     0.65837
              9  F  1  Z      0.68955     0.74661
             10  F  2  S      1.99735     1.99456
             11  F  2  S      0.93710     0.94696
             12  F  2  X      1.17515     1.13828
             13  F  2  Y      1.05100     1.01030
             14  F  2  Z      1.08147     1.04133
             15  F  2  S      1.05656     0.85299
             16  F  2  X      0.68970     0.74767
             17  F  2  Y      0.62450     0.70011
             18  F  2  Z      0.63634     0.71120
             19  F  3  S      1.99735     1.99456
             20  F  3  S      0.93710     0.94697
             21  F  3  X      1.17526     1.13838
             22  F  3  Y      1.17812     1.13955
             23  F  3  Z      0.95428     0.91201
             24  F  3  S      1.05658     0.85299
             25  F  3  X      0.68969     0.74765
             26  F  3  Y      0.69869     0.75519
             27  F  3  Z      0.56210     0.65610
             28  O  4  S      1.99731     1.99377
             29  O  4  S      0.91539     0.89138
             30  O  4  X      0.83948     0.79970
             31  O  4  Y      0.94201     0.88308
             32  O  4  Z      1.13828     1.10431
             33  O  4  S      1.00477     0.72877
             34  O  4  X      0.43913     0.56916
             35  O  4  Y      0.52203     0.62065
             36  O  4  Z      0.71162     0.75468
             37  C  5  S      1.99536     1.98239
             38  C  5  S      0.76454     0.55233
             39  C  5  X      0.68067     0.60876
             40  C  5  Y      0.61534     0.54516
             41  C  5  Z      0.61171     0.54147
             42  C  5  S      0.06020     0.33949
             43  C  5  X      0.15591     0.33180
             44  C  5  Y      0.13468     0.32714
             45  C  5  Z      0.13061     0.33080
             46  H  6  S      0.50816     0.46896
             47  H  6  S      0.09947     0.22211

          ----- MULLIKEN ATOMIC OVERLAP POPULATIONS -----
          (OFF-DIAGONAL ELEMENTS NEED TO BE MULTIPLIED BY 2)

             1           2           3           4           5

    1    9.1448146
    2   -0.0480829   9.2084163
    3   -0.0480817  -0.0504052   9.2084490
    4   -0.0573180  -0.0737087  -0.0737025   8.2735205
    5    0.2407702   0.2107718   0.2107251   0.2051188   4.2978201
    6    0.0028621   0.0021910   0.0021888   0.2361169  -0.0161859

             6

    6    0.3804600

          TOTAL MULLIKEN AND LOWDIN ATOMIC POPULATIONS
       ATOM         MULL.POP.    CHARGE          LOW.POP.     CHARGE
    1 F             9.234964   -0.234964         9.117300   -0.117300
    2 F             9.249182   -0.249182         9.143405   -0.143405
    3 F             9.249173   -0.249173         9.143394   -0.143394
    4 O             8.510027   -0.510027         8.345491   -0.345491
    5 C             5.149020    0.850980         5.559344    0.440656
    6 H             0.607633    0.392367         0.691067    0.308933

          -------------------------------
          BOND ORDER AND VALENCE ANALYSIS     BOND ORDER THRESHOLD=0.050
          -------------------------------

                   BOND                       BOND                       BOND
  ATOM PAIR DIST  ORDER      ATOM PAIR DIST  ORDER      ATOM PAIR DIST  ORDER
    1   5  1.341  1.029        2   5  1.343  0.994        3   5  1.343  0.994
    4   5  1.399  1.041        4   6  0.968  0.781

                       TOTAL       BONDED        FREE
      ATOM            VALENCE     VALENCE     VALENCE
    1 F                 1.055       1.055      -0.000
    2 F                 1.020       1.020       0.000
    3 F                 1.020       1.020       0.000
    4 O                 1.820       1.820       0.000
    5 C                 4.079       4.079       0.000
    6 H                 0.820       0.820      -0.000

          ---------------------
          ELECTROSTATIC MOMENTS
          ---------------------

 POINT   1           X           Y           Z (BOHR)    CHARGE
                -0.021810   -0.021002   -0.006651        0.00 (A.U.)
         DX          DY          DZ         /D/  (DEBYE)
     0.753188   -1.725031   -0.546127    1.959918
 ...... END OF PROPERTY EVALUATION ......
 STEP CPU TIME =     0.00 TOTAL CPU TIME =          4.7 (      0.1 MIN)
 TOTAL WALL CLOCK TIME=          4.9 SECONDS, CPU UTILIZATION IS    96.50%

 BEGINNING ONE ELECTRON GRADIENT...
 ..... END OF 1-ELECTRON GRADIENT ......
 STEP CPU TIME =     0.01 TOTAL CPU TIME =          4.7 (      0.1 MIN)
 TOTAL WALL CLOCK TIME=          4.9 SECONDS, CPU UTILIZATION IS    96.51%

          ----------------------
          GRADIENT OF THE ENERGY
          ----------------------
 MEMORY FOR GRID POINT CONTRIBUTIONS TO THE DFT GRADIENT=    236091 WORDS.
 STEP CPU TIME =     0.77 TOTAL CPU TIME =          5.5 (      0.1 MIN)
 TOTAL WALL CLOCK TIME=          5.7 SECONDS, CPU UTILIZATION IS    96.81%
 THE COARSE/FINE SCHWARZ SCREENINGS SKIPPED         2077/        1139 BLOCKS.
 THE NUMBER OF GRADIENT INTEGRAL BLOCKS COMPUTED WAS      8454
 ...... END OF 2-ELECTRON GRADIENT ......
 STEP CPU TIME =     0.07 TOTAL CPU TIME =          5.5 (      0.1 MIN)
 TOTAL WALL CLOCK TIME=          5.7 SECONDS, CPU UTILIZATION IS    96.85%

          NSERCH=  0     ENERGY=    -413.1774447

                                 -----------------------
                                 GRADIENT (HARTREE/BOHR)
                                 -----------------------
        ATOM     ZNUC       DE/DX         DE/DY         DE/DZ
 --------------------------------------------------------------
    1  F            9.0     0.0082848    -0.0196907    -0.0061631
    2  F            9.0     0.0236692     0.0273731    -0.0234900
    3  F            9.0     0.0237797     0.0088053     0.0349954
    4  O            8.0     0.0163134    -0.0083796    -0.0027371
    5  C            6.0    -0.0504371    -0.0192857    -0.0061589
    6  H            1.0    -0.0216100     0.0111776     0.0035536

          MAXIMUM GRADIENT = 0.0504371    RMS GRADIENT = 0.0212466

 NSERCH:   0  E=     -413.1774447132  GRAD. MAX=  0.0504371  R.M.S.=  0.0212466

          FORCE CONSTANT MATRIX NOT UPDATED --- TAKING FIRST STEP
          MIN SEARCH, CORRECT HESSIAN, TRYING PURE NR STEP
               NR STEP HAS LENGTH         =   0.379068
          TRIM/QA LAMBDA FOR NON-TS MODES =  -0.01888432
          TRIM/QA STEP HAS LENGTH         =   0.300000
          RADIUS OF STEP TAKEN=   0.30000  CURRENT TRUST RADIUS=   0.30000

 BEGINNING GEOMETRY SEARCH POINT NSERCH=   1 ...

 COORDINATES OF ALL ATOMS ARE (ANGS)
   ATOM   CHARGE       X              Y              Z
 ------------------------------------------------------------
 F           9.0  -0.4721648349   1.2227264601   0.3865306261
 F           9.0  -0.5011184077  -0.9555502785   0.8337760438
 F           9.0  -0.5012550215  -0.3009309242  -1.2317735828
 O           8.0   1.4108295438   0.0107902669   0.0045715983
 C           6.0   0.0518845299   0.0218135341   0.0070462828
 H           1.0   1.6922141904  -0.8848490584  -0.2803509682

          INTERNUCLEAR DISTANCES (ANGS.)
          ------------------------------

                1 F          2 F          3 F          4 O          5 C     

   1 F       0.0000000    2.2239056 *  2.2229005 *  2.2716403 *  1.3641217 *
   2 F       2.2239056 *  0.0000000    2.1667999 *  2.2971589 *  1.3944656 *
   3 F       2.2229005 *  2.1667999 *  0.0000000    2.2982138 *  1.3945616 *
   4 O       2.2716403 *  2.2971589 *  2.2982138 *  0.0000000    1.3589920 *
   5 C       1.3641217 *  1.3944656 *  1.3945616 *  1.3589920 *  0.0000000  
   6 H       3.0937263    2.4610944 *  2.4611933 *  0.9810851 *  1.8961318 *

                6 H     

   1 F       3.0937263  
   2 F       2.4610944 *
   3 F       2.4611933 *
   4 O       0.9810851 *
   5 C       1.8961318 *
   6 H       0.0000000  

  * ... LESS THAN  3.000

 ...... END OF ONE-ELECTRON INTEGRALS ......
 STEP CPU TIME =     0.00 TOTAL CPU TIME =          5.5 (      0.1 MIN)
 TOTAL WALL CLOCK TIME=          5.7 SECONDS, CPU UTILIZATION IS    96.85%
 TOTAL NUMBER OF NONZERO TWO-ELECTRON INTEGRALS =              559587
         38 INTEGRAL RECORDS WERE STORED ON DISK FILE  8.
  ...... END OF TWO-ELECTRON INTEGRALS .....
 STEP CPU TIME =     0.04 TOTAL CPU TIME =          5.6 (      0.1 MIN)
 TOTAL WALL CLOCK TIME=          5.8 SECONDS, CPU UTILIZATION IS    97.04%

          --------------------------
             R-B3LYP SCF CALCULATION
          --------------------------
         DENSITY MATRIX CONVERGENCE THRESHOLD=  2.00E-04
     COARSE -> FINE DFT GRID SWITCH THRESHOLD=  6.00E-03 (SWITCH IN $DFT)
                   HF -> DFT SWITCH THRESHOLD=  5.00E-03 (SWOFF IN $DFT)

 DFT CODE IS SWITCHING FROM THE FINE GRID NRAD= 96,  NLEB=  302
                      TO THE COARSE GRID NRAD0= 24, NLEB0=  110

 ITER EX DEM     TOTAL ENERGY        E CHANGE  DENSITY CHANGE    DIIS ERROR
          * * *   INITIATING DIIS PROCEDURE   * * *
   1  0  0     -413.1650304985  -413.1650304985   0.044826554   0.035890176
   2  1  0     -413.1758475822    -0.0108170837   0.026737532   0.020716070
   3  2  0     -413.1759721071    -0.0001245249   0.014045327   0.021540587
   4  3  0     -413.1771142646    -0.0011421575   0.001119060   0.001352065
 DFT CODE IS SWITCHING BACK TO THE FINE GRID
          * * *   INITIATING DIIS PROCEDURE   * * *
   5  4  0     -413.1840281139    -0.0069138492   0.003045028   0.002237949
   6  5  0     -413.1840412700    -0.0000131561   0.001521841   0.001370208
   7  6  0     -413.1840479063    -0.0000066363   0.000597881   0.000604905
   8  7  0     -413.1840494608    -0.0000015546   0.000055817   0.000051772
   9  8  0     -413.1840494670    -0.0000000062   0.000019298   0.000035547
  10  9  0     -413.1840494711    -0.0000000041   0.000003685   0.000004741

          -----------------
          DENSITY CONVERGED
          -----------------
     TIME TO FORM FOCK OPERATORS=       3.3 SECONDS (       0.3 SEC/ITER)
     TIME TO SOLVE SCF EQUATIONS=       0.0 SECONDS (       0.0 SEC/ITER)

 FINAL R-B3LYP ENERGY IS     -413.1840494711 AFTER  10 ITERATIONS
 DFT EXCHANGE + CORRELATION ENERGY =       -36.8282985079
 TOTAL ELECTRON NUMBER             =        41.9999916594
 ...... END OF RHF CALCULATION ......
 STEP CPU TIME =     3.39 TOTAL CPU TIME =          9.0 (      0.1 MIN)
 TOTAL WALL CLOCK TIME=          9.2 SECONDS, CPU UTILIZATION IS    97.71%
 ..... END OF 1-ELECTRON GRADIENT ......
 STEP CPU TIME =     0.00 TOTAL CPU TIME =          9.0 (      0.1 MIN)
 TOTAL WALL CLOCK TIME=          9.2 SECONDS, CPU UTILIZATION IS    97.61%
 MEMORY FOR GRID POINT CONTRIBUTIONS TO THE DFT GRADIENT=    236091 WORDS.
 STEP CPU TIME =     0.81 TOTAL CPU TIME =          9.8 (      0.2 MIN)
 TOTAL WALL CLOCK TIME=         10.0 SECONDS, CPU UTILIZATION IS    97.80%
 ...... END OF 2-ELECTRON GRADIENT ......
 STEP CPU TIME =     0.06 TOTAL CPU TIME =          9.8 (      0.2 MIN)
 TOTAL WALL CLOCK TIME=         10.1 SECONDS, CPU UTILIZATION IS    97.81%

          NSERCH=  1     ENERGY=    -413.1840495

                                 -----------------------
                                 GRADIENT (HARTREE/BOHR)
                                 -----------------------
        ATOM     ZNUC       DE/DX         DE/DY         DE/DZ
 --------------------------------------------------------------
    1  F            9.0    -0.0112332    -0.0045344    -0.0014814
    2  F            9.0    -0.0054831     0.0027082    -0.0113330
    3  F            9.0    -0.0055621    -0.0042693     0.0108930
    4  O            8.0     0.0066722     0.0005483     0.0002973
    5  C            6.0     0.0244045     0.0070210     0.0021212
    6  H            1.0    -0.0087983    -0.0014738    -0.0004972

          MAXIMUM GRADIENT = 0.0244045    RMS GRADIENT = 0.0083557

 NSERCH:   1  E=     -413.1840494711  GRAD. MAX=  0.0244045  R.M.S.=  0.0083557

          HESSIAN UPDATED USING THE BFGS FORMULA
             ACTUAL ENERGY CHANGE WAS  -0.0066047578
          PREDICTED ENERGY CHANGE WAS  -0.0090251450 RATIO=  0.732
          MIN SEARCH, CORRECT HESSIAN, TRYING PURE NR STEP
               NR STEP HAS LENGTH         =   0.377924
          TRIM/QA LAMBDA FOR NON-TS MODES =  -0.01535110
          TRIM/QA STEP HAS LENGTH         =   0.300000
          RADIUS OF STEP TAKEN=   0.30000  CURRENT TRUST RADIUS=   0.30000

 BEGINNING GEOMETRY SEARCH POINT NSERCH=   2 ...

 COORDINATES OF ALL ATOMS ARE (ANGS)
   ATOM   CHARGE       X              Y              Z
 ------------------------------------------------------------
 F           9.0  -0.4048137471   1.2432613306   0.3932084353
 F           9.0  -0.5140056478  -0.9771942691   0.8881949792
 F           9.0  -0.5140563647  -0.2870904869  -1.2887369437
 O           8.0   1.3531488012   0.0116598728   0.0040755030
 C           6.0   0.0002513668  -0.0174985344  -0.0052610327
 H           1.0   1.7598655915  -0.8591379130  -0.2716809411

          INTERNUCLEAR DISTANCES (ANGS.)
          ------------------------------

                1 F          2 F          3 F          4 O          5 C     

   1 F       0.0000000    2.2775771 *  2.2765876 *  2.1814442 *  1.3828851 *
   2 F       2.2775771 *  0.0000000    2.2836978 *  2.2903636 *  1.4084530 *
   3 F       2.2765876 *  2.2836978 *  0.0000000    2.2906486 *  1.4087238 *
   4 O       2.1814442 *  2.2903636 *  2.2906486 *  0.0000000    1.3532438 *
   5 C       1.3828851 *  1.4084530 *  1.4087238 *  1.3532438 *  0.0000000  
   6 H       3.0899833    2.5553356 *  2.5558486 *  0.9998745 *  1.9686489 *

                6 H     

   1 F       3.0899833  
   2 F       2.5553356 *
   3 F       2.5558486 *
   4 O       0.9998745 *
   5 C       1.9686489 *
   6 H       0.0000000  

  * ... LESS THAN  3.000

 ...... END OF ONE-ELECTRON INTEGRALS ......
 STEP CPU TIME =     0.00 TOTAL CPU TIME =          9.8 (      0.2 MIN)
 TOTAL WALL CLOCK TIME=         10.1 SECONDS, CPU UTILIZATION IS    97.81%
 TOTAL NUMBER OF NONZERO TWO-ELECTRON INTEGRALS =              559158
         38 INTEGRAL RECORDS WERE STORED ON DISK FILE  8.
  ...... END OF TWO-ELECTRON INTEGRALS .....
 STEP CPU TIME =     0.03 TOTAL CPU TIME =          9.9 (      0.2 MIN)
 TOTAL WALL CLOCK TIME=         10.1 SECONDS, CPU UTILIZATION IS    97.82%

          --------------------------
             R-B3LYP SCF CALCULATION
          --------------------------
         DENSITY MATRIX CONVERGENCE THRESHOLD=  5.00E-05
     COARSE -> FINE DFT GRID SWITCH THRESHOLD=  1.50E-03 (SWITCH IN $DFT)
                   HF -> DFT SWITCH THRESHOLD=  5.00E-03 (SWOFF IN $DFT)

 DFT CODE IS SWITCHING FROM THE FINE GRID NRAD= 96,  NLEB=  302
                      TO THE COARSE GRID NRAD0= 24, NLEB0=  110

 ITER EX DEM     TOTAL ENERGY        E CHANGE  DENSITY CHANGE    DIIS ERROR
          * * *   INITIATING DIIS PROCEDURE   * * *
   1  0  0     -413.1729169227  -413.1729169227   0.042397675   0.028402331
   2  1  0     -413.1813349916    -0.0084180689   0.014503916   0.008804672
   3  2  0     -413.1811447623     0.0001902293   0.007955723   0.011383412
   4  3  0     -413.1816919993    -0.0005472370   0.000718006   0.000788185
 DFT CODE IS SWITCHING BACK TO THE FINE GRID
          * * *   INITIATING DIIS PROCEDURE   * * *
   5  4  0     -413.1850251365    -0.0033331372   0.002688730   0.002017694
   6  5  0     -413.1850353133    -0.0000101768   0.001404338   0.001422337
   7  6  0     -413.1850404707    -0.0000051574   0.000459371   0.000598606
   8  7  0     -413.1850419204    -0.0000014497   0.000054694   0.000047128
   9  8  0     -413.1850419283    -0.0000000079   0.000020873   0.000022806
  10  9  0     -413.1850419305    -0.0000000022   0.000004480   0.000006639

          -----------------
          DENSITY CONVERGED
          -----------------
     TIME TO FORM FOCK OPERATORS=       3.3 SECONDS (       0.3 SEC/ITER)
     TIME TO SOLVE SCF EQUATIONS=       0.0 SECONDS (       0.0 SEC/ITER)

 FINAL R-B3LYP ENERGY IS     -413.1850419305 AFTER  10 ITERATIONS
 DFT EXCHANGE + CORRELATION ENERGY =       -36.8015652104
 TOTAL ELECTRON NUMBER             =        41.9998945831
 ...... END OF RHF CALCULATION ......
 STEP CPU TIME =     3.33 TOTAL CPU TIME =         13.2 (      0.2 MIN)
 TOTAL WALL CLOCK TIME=         13.4 SECONDS, CPU UTILIZATION IS    98.29%
 ..... END OF 1-ELECTRON GRADIENT ......
 STEP CPU TIME =     0.01 TOTAL CPU TIME =         13.2 (      0.2 MIN)
 TOTAL WALL CLOCK TIME=         13.4 SECONDS, CPU UTILIZATION IS    98.29%
 MEMORY FOR GRID POINT CONTRIBUTIONS TO THE DFT GRADIENT=    236091 WORDS.
 STEP CPU TIME =     0.76 TOTAL CPU TIME =         14.0 (      0.2 MIN)
 TOTAL WALL CLOCK TIME=         14.2 SECONDS, CPU UTILIZATION IS    98.38%
 ...... END OF 2-ELECTRON GRADIENT ......
 STEP CPU TIME =     0.06 TOTAL CPU TIME =         14.0 (      0.2 MIN)
 TOTAL WALL CLOCK TIME=         14.3 SECONDS, CPU UTILIZATION IS    98.39%

          NSERCH=  2     ENERGY=    -413.1850419

                                 -----------------------
                                 GRADIENT (HARTREE/BOHR)
                                 -----------------------
        ATOM     ZNUC       DE/DX         DE/DY         DE/DZ
 --------------------------------------------------------------
[...]
   31  O  4  Y   -0.081292  -0.091197   0.048361  -0.007034  -0.356159
   32  O  4  Z   -0.026808  -0.026919  -0.162393   0.017630  -0.109507
   33  O  4  S   -0.145578   0.052992  -0.000142  -0.000310  -0.122975
   34  O  4  X    0.054902  -0.159756  -0.001451  -0.001011  -0.215838
   35  O  4  Y    0.004940  -0.053049   0.029673  -0.004118  -0.220748
   36  O  4  Z   -0.000224  -0.015639  -0.099823   0.010467  -0.067823
   37  C  5  S   -0.002363  -0.006936  -0.000084  -0.000072  -0.017125
   38  C  5  S    0.006918   0.015714   0.000175   0.000226   0.050422
   39  C  5  X   -0.022275   0.090731   0.001141   0.000582   0.130487
   40  C  5  Y    0.073197   0.041171  -0.017897   0.002001  -0.004130
   41  C  5  Z    0.021899   0.012147   0.059400  -0.005861  -0.001487
   42  C  5  S    0.004241  -0.020760  -0.000024  -0.000190  -0.024524
   43  C  5  X    0.086542  -0.124086  -0.001016  -0.000475  -0.089508
   44  C  5  Y   -0.135591  -0.140901   0.046040  -0.005898  -0.022499
   45  C  5  Z   -0.040860  -0.042060  -0.153415   0.016237  -0.006810
   46  H  6  S    0.077346  -0.014055   0.000199   0.000354   0.104584
   47  H  6  S    0.054507  -0.007859  -0.000086   0.000094   0.048365

                     21         22         23         24         25
                   -0.3746     0.0273     0.1060     0.1239     0.1334
                     A          A          A          A          A   
    1  F  1  S   -0.000037  -0.023768   0.007932  -0.000861  -0.078498
    2  F  1  S    0.000036   0.054312  -0.031945   0.001736   0.165634
    3  F  1  X    0.002396   0.101005   0.075927   0.001913   0.098854
    4  F  1  Y   -0.028156  -0.102192   0.075322  -0.061872  -0.382202
    5  F  1  Z    0.088003  -0.033128   0.022345   0.181184  -0.123459
    6  F  1  S    0.000427   0.176114  -0.001945   0.007943   0.698614
    7  F  1  X    0.001691   0.081986   0.072841   0.002409   0.136312
    8  F  1  Y   -0.022391  -0.127504   0.064922  -0.064542  -0.481742
    9  F  1  Z    0.069524  -0.041160   0.019060   0.185581  -0.155263
   10  F  2  S   -0.002910  -0.009138   0.061638  -0.049163  -0.008469
   11  F  2  S    0.001903   0.027638  -0.137406   0.101875   0.029077
   12  F  2  X    0.225910   0.044998  -0.106051   0.152469  -0.076376
   13  F  2  Y    0.040854   0.008314  -0.181948   0.229318   0.160625
   14  F  2  Z    0.020666  -0.000571   0.289674  -0.083096   0.031606
   15  F  2  S    0.038789   0.044894  -0.495380   0.431597   0.018737
   16  F  2  X    0.158237   0.028848  -0.134203   0.178512  -0.081105
   17  F  2  Y    0.043637   0.029369  -0.225136   0.278260   0.155727
   18  F  2  Z    0.006723  -0.001674   0.338369  -0.122300   0.043860
   19  F  3  S    0.002926  -0.009298   0.060967   0.049746  -0.009633
   20  F  3  S   -0.001856   0.027805  -0.136019  -0.102921   0.031481
   21  F  3  X   -0.227910   0.045422  -0.104978  -0.155897  -0.072583
   22  F  3  Y   -0.044114   0.007624   0.020550  -0.135698   0.152313
   23  F  3  Z   -0.006362   0.006641  -0.338481  -0.202892   0.071581
   24  F  3  S   -0.039220   0.046850  -0.489452  -0.437434   0.029198
   25  F  3  X   -0.159744   0.029429  -0.133001  -0.182601  -0.076793
   26  F  3  Y   -0.038609   0.024172   0.013630  -0.153043   0.156010
   27  F  3  Z   -0.019667   0.019857  -0.402285  -0.264027   0.060351
   28  O  4  S    0.000014  -0.084302   0.011924   0.000009   0.006267
   29  O  4  S   -0.000027   0.174629  -0.037779   0.000002  -0.001485
   30  O  4  X   -0.000306   0.044513   0.168632   0.001442   0.015326
   31  O  4  Y    0.176590  -0.274405   0.064087  -0.064914   0.162904
   32  O  4  Z   -0.571874  -0.085146   0.019258   0.211659   0.049141
   33  O  4  S   -0.000122   0.893843  -0.100390  -0.000373  -0.212225
   34  O  4  X   -0.000272   0.120307   0.226632   0.001876   0.033035
   35  O  4  Y    0.123524  -0.430297   0.074958  -0.078192   0.238620
   36  O  4  Z   -0.399744  -0.133275   0.022423   0.255501   0.072297
   37  C  5  S    0.000004   0.043314  -0.146860   0.000094   0.091324
   38  C  5  S   -0.000040  -0.093928   0.368270  -0.000381  -0.278029
   39  C  5  X   -0.000092  -0.101765  -0.272241   0.000774   0.328008
   40  C  5  Y    0.005691  -0.129648  -0.452164   0.234991  -0.563791
   41  C  5  Z   -0.018354  -0.038813  -0.137442  -0.774010  -0.170014
   42  C  5  S    0.000050  -0.265374   1.097599  -0.000041  -0.549233
   43  C  5  X   -0.000097   0.019512  -0.155183   0.001351   0.363436
   44  C  5  Y    0.018152  -0.117376  -0.477441   0.225676  -0.674038
   45  C  5  Z   -0.059080  -0.035178  -0.145781  -0.747996  -0.204787
   46  H  6  S    0.000046  -0.194755  -0.081480  -0.000601  -0.056124
   47  H  6  S    0.000192  -1.379183  -0.142068  -0.002028   0.259638

                     26         27         28         29         30
                    0.2242     0.5030     0.5091     0.5136     0.5914
                     A          A          A          A          A   
    1  F  1  S   -0.014528   0.019486   0.000004   0.027522  -0.034299
    2  F  1  S    0.028424   0.005790  -0.000136  -0.036613   0.105095
    3  F  1  X    0.162895  -0.018589  -0.000077   0.179803   0.028867
    4  F  1  Y   -0.013234  -0.189662   0.050271  -0.104545   0.092360
    5  F  1  Z   -0.004365  -0.060336  -0.157768  -0.033313   0.029426
    6  F  1  S    0.160353  -0.658092   0.000616  -0.633891   0.441104
    7  F  1  X    0.214456  -0.177270  -0.000135   0.111791   0.151933
    8  F  1  Y   -0.037759   0.093435   0.064251   0.234371  -0.244429
    9  F  1  Z   -0.012237   0.029694  -0.202722   0.074591  -0.077681
   10  F  2  S    0.004509  -0.018321   0.025399   0.018534  -0.035674
   11  F  2  S   -0.002043   0.018116  -0.026514  -0.036825   0.102256
   12  F  2  X    0.127278  -0.051430   0.004725   0.168670   0.033946
   13  F  2  Y   -0.006156  -0.162450   0.067663  -0.019724  -0.088781
   14  F  2  Z    0.057358  -0.033951  -0.171452  -0.035643   0.082751
   15  F  2  S   -0.082716   0.462594  -0.635339  -0.327742   0.497605
   16  F  2  X    0.141747   0.017671  -0.125677   0.140389   0.168032
   17  F  2  Y   -0.030852  -0.020090  -0.175452  -0.189690   0.182058
   18  F  2  Z    0.082797  -0.216968   0.017762   0.096533  -0.189638
   19  F  3  S    0.004488  -0.018358  -0.025328   0.018593  -0.035703
   20  F  3  S   -0.001922   0.018206   0.026311  -0.036691   0.102549
   21  F  3  X    0.127413  -0.051461  -0.005183   0.168927   0.034208
   22  F  3  Y    0.027936  -0.152142   0.043766  -0.036664  -0.024930
   23  F  3  Z   -0.051137  -0.066099  -0.178793   0.017676  -0.118860
   24  F  3  S   -0.082841   0.463189   0.634109  -0.330265   0.496842
   25  F  3  X    0.141645   0.018402   0.126101   0.139511   0.168543
   26  F  3  Y    0.022613  -0.141625   0.133289  -0.099582   0.039239
   27  F  3  Z   -0.086039   0.165589   0.114769  -0.189158   0.259342
   28  O  4  S   -0.078397   0.017908  -0.000119   0.000683  -0.021297
   29  O  4  S    0.173441  -0.053640   0.000530  -0.065568   0.043077
   30  O  4  X   -0.465679  -0.186732   0.000911   0.103583   0.062640
   31  O  4  Y    0.103460  -0.058255   0.065759  -0.005451   0.213075
   32  O  4  Z    0.032593  -0.019669  -0.210782  -0.002152   0.065125
   33  O  4  S    0.886503  -0.373076   0.000309   0.729631   0.981816
   34  O  4  X   -0.916438   0.143171  -0.000230  -0.183416  -0.585029
   35  O  4  Y    0.220648  -0.237661   0.069403  -0.043242  -0.013603
   36  O  4  Z    0.069384  -0.075532  -0.218120  -0.013369  -0.003418
   37  C  5  S    0.094658   0.008366  -0.000055  -0.002285   0.021892
   38  C  5  S   -0.283561   0.017253  -0.000605  -0.415709   1.614585
   39  C  5  X   -0.678580  -0.266355  -0.000088   0.792813   0.252556
   40  C  5  Y   -0.087618  -0.791888   0.254153  -0.265145  -0.099925
   41  C  5  Z   -0.027310  -0.251744  -0.798405  -0.084364  -0.031753
   42  C  5  S   -1.086229   0.028767   0.001318   0.647765  -3.430464
   43  C  5  X   -1.110254   0.667365   0.001431  -1.976917  -0.831097
   44  C  5  Y   -0.236372   1.774748  -0.581043   0.565106   0.157953
   45  C  5  Z   -0.073621   0.563910   1.824617   0.178975   0.050338
   46  H  6  S    0.008394   0.121516  -0.001414  -0.001289   0.224409
   47  H  6  S    0.578025   0.054615  -0.000713   0.247329   0.295362

                     31
                    0.7874
                     A   
    1  F  1  S    0.002707
    2  F  1  S   -0.027889
    3  F  1  X   -0.051713
    4  F  1  Y   -0.017997
    5  F  1  Z   -0.006258
    6  F  1  S    0.003281
    7  F  1  X    0.027276
    8  F  1  Y    0.008344
    9  F  1  Z    0.002838
   10  F  2  S    0.010887
   11  F  2  S   -0.050482
   12  F  2  X   -0.000452
   13  F  2  Y    0.022914
   14  F  2  Z    0.011153
   15  F  2  S   -0.106134
   16  F  2  X   -0.053357
   17  F  2  Y   -0.037476
   18  F  2  Z    0.036102
   19  F  3  S    0.010874
   20  F  3  S   -0.050485
   21  F  3  X   -0.000870
   22  F  3  Y    0.025858
   23  F  3  Z    0.004743
   24  F  3  S   -0.105361
   25  F  3  X   -0.053278
   26  F  3  Y   -0.009869
   27  F  3  Z   -0.051228
   28  O  4  S    0.025198
   29  O  4  S   -0.162643
   30  O  4  X    0.202253
   31  O  4  Y    0.553936
   32  O  4  Z    0.170693
   33  O  4  S    0.089246
   34  O  4  X   -0.350607
   35  O  4  Y   -0.231098
   36  O  4  Z   -0.070928
   37  C  5  S   -0.022906
   38  C  5  S   -0.518307
   39  C  5  X   -0.084906
   40  C  5  Y    0.003009
   41  C  5  Z    0.000854
   42  C  5  S    0.732069
   43  C  5  X    0.187526
   44  C  5  Y   -0.187895
   45  C  5  Z   -0.058360
   46  H  6  S    1.087737
   47  H  6  S   -1.063649

     ---------------------------------------------------------------------
     PROPERTIES FOR THE B3LYP    DFT FUNCTIONAL (RHF  TYPE) DENSITY MATRIX
     ---------------------------------------------------------------------

          -----------------
          ENERGY COMPONENTS
          -----------------

         WAVEFUNCTION NORMALIZATION =       1.0000000000

                ONE ELECTRON ENERGY =    -969.5403548491
                TWO ELECTRON ENERGY =     356.6435098067
           NUCLEAR REPULSION ENERGY =     199.7098764701
                                      ------------------
                       TOTAL ENERGY =    -413.1869685724

 ELECTRON-ELECTRON POTENTIAL ENERGY =     356.6435098067
  NUCLEUS-ELECTRON POTENTIAL ENERGY =   -1380.8964808735
   NUCLEUS-NUCLEUS POTENTIAL ENERGY =     199.7098764701
                                      ------------------
             TOTAL POTENTIAL ENERGY =    -824.5430945968
               TOTAL KINETIC ENERGY =     411.3561260244
                 VIRIAL RATIO (V/T) =       2.0044507482

          ---------------------------------------
          MULLIKEN AND LOWDIN POPULATION ANALYSES
          ---------------------------------------

     ATOMIC MULLIKEN POPULATION IN EACH MOLECULAR ORBITAL

                      1          2          3          4          5

                  2.000000   2.000000   2.000000   2.000000   2.000000

    1             1.998569   0.000044   0.000024  -0.000008  -0.000514
    2             0.000032   1.968763   0.029890  -0.000006  -0.000450
    3             0.000029   0.029772   1.968884  -0.000006  -0.000450
    4            -0.000027  -0.000026  -0.000019   1.997585  -0.000298
    5             0.001397   0.001451   0.001223   0.002145   2.001667
    6             0.000000  -0.000004  -0.000002   0.000288   0.000046

                      6          7          8          9         10

                  2.000000   2.000000   2.000000   2.000000   2.000000

    1             0.641305   1.167321   0.002771   0.045777   0.344478
    2             0.494977   0.377208   0.941241   0.058041   0.205118
    3             0.493381   0.352790   0.967712   0.057414   0.205546
    4             0.102182   0.004587   0.003450   1.571362   0.560488
    5             0.266448   0.096938   0.084826   0.165595   0.502952
    6             0.001706   0.001156  -0.000000   0.101810   0.181418

                     11         12         13         14         15

                  2.000000   2.000000   2.000000   2.000000   2.000000

    1             0.144172   0.199730   0.829486   0.080851   0.759952
    2             0.396517   0.579539   0.235190   0.618066   0.585575
    3             0.392188   0.582461   0.235151   0.601299   0.568108
    4             0.431460   0.112902   0.172348   0.547882   0.069608
    5             0.500661   0.525366   0.516455   0.068836   0.016754
    6             0.135001   0.000001   0.011369   0.083067   0.000003

                     16         17         18         19         20

                  2.000000   2.000000   2.000000   2.000000   2.000000

    1             0.743796   1.202755   0.357530   0.549913   0.144641
    2             0.536766   0.245626   0.704055   0.720790   0.374393
    3             0.562030   0.237894   0.718569   0.726619   0.368687
    4             0.047803   0.206000   0.139027   0.001650   1.009517
    5             0.079215   0.106594   0.080818   0.001028   0.064710
    6             0.030389   0.001131   0.000000   0.000000   0.038052

                     21

                  2.000000

    1             0.033742
    2             0.197837
    3             0.200872
    4             1.546184
    5             0.021365
    6             0.000000

               ----- POPULATIONS IN EACH AO -----
                             MULLIKEN      LOWDIN
              1  F  1  S      1.99735     1.99461
              2  F  1  S      0.94101     0.94919
              3  F  1  X      1.17008     1.13106
              4  F  1  Y      0.95103     0.90769
              5  F  1  Z      1.17036     1.13182
              6  F  1  S      1.05914     0.85941
              7  F  1  X      0.68915     0.74701
              8  F  1  Y      0.57322     0.66075
              9  F  1  Z      0.69499     0.74929
             10  F  2  S      1.99735     1.99465
             11  F  2  S      0.93930     0.95084
             12  F  2  X      1.15523     1.11709
             13  F  2  Y      1.05320     1.01335
             14  F  2  Z      1.07959     1.04028
             15  F  2  S      1.05956     0.86956
             16  F  2  X      0.68936     0.75164
             17  F  2  Y      0.64345     0.71271
             18  F  2  Z      0.65213     0.72040
             19  F  3  S      1.99735     1.99465
             20  F  3  S      0.93932     0.95084
             21  F  3  X      1.15463     1.11646
             22  F  3  Y      1.17884     1.14089
             23  F  3  Z      0.95452     0.91333
             24  F  3  S      1.05955     0.86956
             25  F  3  X      0.68893     0.75138
             26  F  3  Y      0.70855     0.76241
             27  F  3  Z      0.58726     0.67088
             28  O  4  S      1.99723     1.99342
             29  O  4  S      0.90862     0.87834
             30  O  4  X      0.84073     0.79622
             31  O  4  Y      0.96951     0.91340
             32  O  4  Z      1.13165     1.09717
             33  O  4  S      0.98583     0.70773
             34  O  4  X      0.42305     0.55133
             35  O  4  Y      0.55887     0.64326
             36  O  4  Z      0.70818     0.74892
             37  C  5  S      1.99534     1.98261
             38  C  5  S      0.76310     0.55658
             39  C  5  X      0.66650     0.59627
             40  C  5  Y      0.59898     0.52972
             41  C  5  Z      0.59298     0.52249
             42  C  5  S      0.07578     0.34821
             43  C  5  X      0.13777     0.33352
             44  C  5  Y      0.13731     0.32634
             45  C  5  Z      0.13868     0.33143
             46  H  6  S      0.48822     0.45179
             47  H  6  S      0.09721     0.21947

          ----- MULLIKEN ATOMIC OVERLAP POPULATIONS -----
          (OFF-DIAGONAL ELEMENTS NEED TO BE MULTIPLIED BY 2)

             1           2           3           4           5

    1    9.1562362
    2   -0.0424606   9.1999412
    3   -0.0426358  -0.0462520   9.1995802
    4   -0.0582058  -0.0633388  -0.0632737   8.2776261
    5    0.2309074   0.2208797   0.2211694   0.1910579   4.2533000
    6    0.0024956   0.0003973   0.0003624   0.2398013  -0.0108688

             6

    6    0.3532457

          TOTAL MULLIKEN AND LOWDIN ATOMIC POPULATIONS
       ATOM         MULL.POP.    CHARGE          LOW.POP.     CHARGE
    1 F             9.246337   -0.246337         9.130831   -0.130831
    2 F             9.269167   -0.269167         9.170526   -0.170526
    3 F             9.268950   -0.268950         9.170412   -0.170412
    4 O             8.523667   -0.523667         8.329795   -0.329795
    5 C             5.106445    0.893555         5.527177    0.472823
    6 H             0.585433    0.414567         0.671258    0.328742

          -------------------------------
          BOND ORDER AND VALENCE ANALYSIS     BOND ORDER THRESHOLD=0.050
          -------------------------------

                   BOND                       BOND                       BOND
  ATOM PAIR DIST  ORDER      ATOM PAIR DIST  ORDER      ATOM PAIR DIST  ORDER
    1   5  1.367  1.005        2   5  1.394  0.975        3   5  1.394  0.975
    4   5  1.362  1.061        4   6  0.979  0.763

                       TOTAL       BONDED        FREE
      ATOM            VALENCE     VALENCE     VALENCE
    1 F                 1.043       1.043       0.000
    2 F                 1.014       1.014      -0.000
    3 F                 1.014       1.014       0.000
    4 O                 1.835       1.835       0.000
    5 C                 4.037       4.037       0.000
    6 H                 0.802       0.802      -0.000

          ---------------------
          ELECTROSTATIC MOMENTS
          ---------------------

 POINT   1           X           Y           Z (BOHR)    CHARGE
                -0.086738   -0.028773   -0.010464        0.00 (A.U.)
         DX          DY          DZ         /D/  (DEBYE)
     1.710909   -1.778226   -0.549163    2.528018
 ...... END OF PROPERTY EVALUATION ......
 STEP CPU TIME =     0.01 TOTAL CPU TIME =         51.2 (      0.9 MIN)
 TOTAL WALL CLOCK TIME=         51.5 SECONDS, CPU UTILIZATION IS    99.32%
  $VIB   
          IVIB=   0 IATOM=   0 ICOORD=   0 E=     -413.1869685724
  4.131421316E-06 1.049567382E-05 4.960532148E-06-7.009573882E-07 1.397574820E-06
  6.246659428E-06 9.161241500E-06-7.237247056E-06-1.806309842E-05 4.203696832E-05
 -4.208874673E-05-1.108395861E-05-2.616835664E-05-1.207883141E-05 1.335819839E-05
 -2.846031711E-05 4.951157655E-05 4.581667057E-06
  1.710909012E+00-1.778225692E+00-5.491634070E-01
 ......END OF GEOMETRY SEARCH......
 STEP CPU TIME =     0.00 TOTAL CPU TIME =         51.2 (      0.9 MIN)
 TOTAL WALL CLOCK TIME=         51.5 SECONDS, CPU UTILIZATION IS    99.32%
               580000  WORDS OF DYNAMIC MEMORY USED
 EXECUTION OF GAMESS TERMINATED NORMALLY Tue Mar 17 14:37:10 2020
 DDI: 263640 bytes (0.3 MB / 0 MWords) used by master data server.

 ----------------------------------------
 CPU timing information for all processes
 ========================================
 0: 50.872 + 0.306 = 51.179
 1: 0.01 + 0.02 = 0.04
 ----------------------------------------
 ddikick.x: exited gracefully.
unset echo
----- accounting info -----
Files used on the master node Vusals-MacBook-Pro.local were:
-rw-r--r--@ 1 wurthel  staff      516 Mar 17 14:36 .//ES.F05
-rw-r--r--  1 wurthel  staff  6840608 Mar 17 14:37 .//ES.F08
-rw-r--r--  1 wurthel  staff  1701440 Mar 17 14:37 .//ES.F10
-rw-r--r--  1 wurthel  staff  1796304 Mar 17 14:37 .//ES.F22
-rw-r--r--  1 wurthel  staff   256247 Mar 17 14:37 .//ES.dat
-rw-r--r--@ 1 wurthel  staff      516 Mar 17 14:35 .//ES.inp
-rw-r--r--  1 wurthel  staff   161501 Mar 17 14:37 .//ES.log
ls: No match.
ls: No match.
ls: No match.
Tue Mar 17 14:37:13 MSK 2020
50.938u 0.379s 0:54.71 93.7%	0+0k 0+0io 612pf+0w
