----- GAMESS execution script 'rungms' -----
This job is running on host Vusals-MacBook-Pro.local
under operating system Darwin at Tue Mar 17 15:05:06 MSK 2020
Available scratch disk space (Kbyte units) at beginning of the job is
Filesystem   1024-blocks     Used Available Capacity iused               ifree %iused  Mounted on
/dev/disk1s5   118181844 45132696  68638148    40% 1004283 9223372036853771524    0%   /
GAMESS temporary binary files will be written to ./
GAMESS supplementary output files will be written to ./
Copying input file TS.inp to your run's scratch directory...
cp TS.inp .//TS.F05
unset echo
.//ddikick.x .//gamess.30Sep2018R3.x TS -ddi 1 1 Vusals-MacBook-Pro.local -scr ./

 Distributed Data Interface kickoff program.
 Initiating 1 compute processes on 1 nodes to run the following command:
 .//gamess.30Sep2018R3.x TS 

          ******************************************************
          *         GAMESS VERSION = 30 SEP 2018 (R3)         *
          *             FROM IOWA STATE UNIVERSITY             *
          * M.W.SCHMIDT, K.K.BALDRIDGE, J.A.BOATZ, S.T.ELBERT, *
          *   M.S.GORDON, J.H.JENSEN, S.KOSEKI, N.MATSUNAGA,   *
          *          K.A.NGUYEN, S.J.SU, T.L.WINDUS,           *
          *       TOGETHER WITH M.DUPUIS, J.A.MONTGOMERY       *
          *         J.COMPUT.CHEM.  14, 1347-1363(1993)        *
          **************** 64 BIT APPLE VERSION ****************

  SINCE 1993, STUDENTS AND POSTDOCS WORKING AT IOWA STATE UNIVERSITY
  AND ALSO IN THEIR VARIOUS JOBS AFTER LEAVING ISU HAVE MADE IMPORTANT
  CONTRIBUTIONS TO THE CODE:
     IVANA ADAMOVIC, CHRISTINE AIKENS, YURI ALEXEEV, POOJA ARORA,
     ANDREY ASADCHEV, ROB BELL, PRADIPTA BANDYOPADHYAY, JONATHAN BENTZ,
     BRETT BODE, KURT BRORSEN, CALEB CARLIN, GALINA CHABAN, WEI CHEN,
     CHEOL HO CHOI, PAUL DAY, ALBERT DEFUSCO, NUWAN DESILVA, TIM DUDLEY,
     DMITRI FEDOROV, ALEX FINDLATER, GRAHAM FLETCHER, MARK FREITAG,
     KURT GLAESEMANN, ANASTASIA GUNINA,
     DAN KEMP, GRANT MERRILL, NORIYUKI MINEZAWA, JONATHAN MULLIN,
     TAKESHI NAGATA, SEAN NEDD, HEATHER NETZLOFF, BOSILJKA NJEGIC, RYAN OLSON,
     MIKE PAK, BUU PHAM,
     SPENCER PRUITT, LUKE ROSKOP, JIM SHOEMAKER, LYUDMILA SLIPCHENKO,
     TONY SMITH, SAROM SOK LEANG, JIE SONG, TETSUYA TAKETSUGU, SIMON WEBB,
     PENG XU, SOOHAENG YOO, FEDERICO ZAHARIEV

  ADDITIONAL CODE HAS BEEN PROVIDED BY COLLABORATORS IN OTHER GROUPS:
     IOWA STATE UNIVERSITY:
          JOE IVANIC, AARON WEST, LAIMUTIS BYTAUTAS, KLAUS RUEDENBERG
     UNIVERSITY OF TOKYO: KIMIHIKO HIRAO, TAKAHITO NAKAJIMA,
          TAKAO TSUNEDA, MUNEAKI KAMIYA, SUSUMU YANAGISAWA,
          KIYOSHI YAGI, MAHITO CHIBA, SEIKEN TOKURA, NAOAKI KAWAKAMI
     UNIVERSITY OF AARHUS: FRANK JENSEN
     UNIVERSITY OF IOWA: VISVALDAS KAIRYS, HUI LI
     NATIONAL INST. OF STANDARDS AND TECHNOLOGY: WALT STEVENS, DAVID GARMER
     UNIVERSITY OF PISA: BENEDETTA MENNUCCI, JACOPO TOMASI
     UNIVERSITY OF MEMPHIS: HENRY KURTZ, PRAKASHAN KORAMBATH
     UNIVERSITY OF ALBERTA: TOBY ZENG, MARIUSZ KLOBUKOWSKI
     UNIVERSITY OF NEW ENGLAND: MARK SPACKMAN
     MIE UNIVERSITY: HIROAKI UMEDA
     NAT. INST. OF ADVANCED INDUSTRIAL SCIENCE AND TECHNOLOGY: KAZUO KITAURA
     MICHIGAN STATE UNIVERSITY:
          KAROL KOWALSKI, MARTA WLOCH, JEFFREY GOUR, JESSE LUTZ,
          WEI LI, JUN SHEN, J. EMILIANO DEUSTUA, PIOTR PIECUCH
     UNIVERSITY OF MINNESOTA:
          YINAN SHU
     UNIVERSITY OF SILESIA: MONIKA MUSIAL, STANISLAW KUCHARSKI
     FACULTES UNIVERSITAIRES NOTRE-DAME DE LA PAIX:
          OLIVIER QUINET, BENOIT CHAMPAGNE
     UNIVERSITY OF CALIFORNIA - SANTA BARBARA: BERNARD KIRTMAN
     INSTITUTE FOR MOLECULAR SCIENCE:
          KAZUYA ISHIMURA, MICHIO KATOUDA, AND SHIGERU NAGASE
     UNIVERSITY OF NOTRE DAME: ANNA POMOGAEVA, DAN CHIPMAN
     KYUSHU UNIVERSITY:
          HARUYUKI NAKANO,
          FENG LONG GU, JACEK KORCHOWIEC, MARCIN MAKOWSKI, AND YURIKO AOKI,
          HIROTOSHI MORI AND EISAKU MIYOSHI
     PENNSYLVANIA STATE UNIVERSITY:
          TZVETELIN IORDANOV, CHET SWALINA, JONATHAN SKONE,
          SHARON HAMMES-SCHIFFER
     WASEDA UNIVERSITY:
          MASATO KOBAYASHI, TOMOKO AKAMA, TSUGUKI TOUMA,
          TAKESHI YOSHIKAWA, YASUHIRO IKABATA, JUNJI SEINO,
          YUYA NAKAJIMA, HIROMI NAKAI
     NANJING UNIVERSITY: SHUHUA LI
     UNIVERSITY OF NEBRASKA:
          PEIFENG SU, DEJUN SI, NANDUN THELLAMUREGE, YALI WANG, HUI LI
     UNIVERSITY OF ZURICH: ROBERTO PEVERATI, KIM BALDRIDGE
     N. COPERNICUS UNIVERSITY AND JACKSON STATE UNIVERSITY:
          MARIA BARYSZ
     UNIVERSITY OF COPENHAGEN: Jimmy Kromann, CASPER STEINMANN
     TOKYO INSTITUTE OF TECHNOLOGY: HIROYA NAKATA
     NAGOYA UNIVERSITY: YOSHIO NISHIMOTO, STEPHAN IRLE
     MOSCOW STATE UNIVERSITY: VLADIMIR MIRONOV

 EXECUTION OF GAMESS BEGUN Tue Mar 17 15:05:06 2020

            ECHO OF THE FIRST FEW INPUT CARDS -
 INPUT CARD>!   File created by the GAMESS Input Deck Generator Plugin for Avogadro         
 INPUT CARD> $BASIS GBASIS=N31 NGAUSS=6 NDFUNC=0 $END                                       
 INPUT CARD> $CONTRL SCFTYP=RHF RUNTYP=SADPOINT DFTTYP=B3LYP MAXIT=200 $END                 
 INPUT CARD> $STATPT OPTTOL=0.0001 NSTEP=200 HESS=CALC $END                                 
 INPUT CARD> $FORCE METHOD=SEMINUM $END                                                     
 INPUT CARD>                                                                                
 INPUT CARD> $DATA                                                                          
 INPUT CARD>Title                                                                           
 INPUT CARD>C1                                                                              
 INPUT CARD>F     9.0    -0.42730     1.22880     0.38940                                   
 INPUT CARD>F     9.0    -0.51760    -0.96110     0.86260                                   
 INPUT CARD>F     9.0    -0.52100    -0.28670    -1.25910                                   
 INPUT CARD>O     8.0     1.37430    -0.00120    -0.00260                                   
 INPUT CARD>C     6.0     0.01230    -0.00510    -0.00250                                   
 INPUT CARD>H     1.0     1.76410    -0.18690    -0.88080                                   
 INPUT CARD> $END                                                                           
    1000000 WORDS OF MEMORY AVAILABLE

     BASIS OPTIONS
     -------------
     GBASIS=N31          IGAUSS=       6      POLAR=NONE    
     NDFUNC=       0     NFFUNC=       0     DIFFSP=       F
     NPFUNC=       0      DIFFS=       F     BASNAM=        


     RUN TITLE
     ---------
 Title                                                                           

 THE POINT GROUP OF THE MOLECULE IS C1      
 THE ORDER OF THE PRINCIPAL AXIS IS     0

 ATOM      ATOMIC                      COORDINATES (BOHR)
           CHARGE         X                   Y                   Z
 F           9.0    -0.8074799146        2.3220952937        0.7358592996
 F           9.0    -0.9781221712       -1.8162156468        1.6300776370
 F           9.0    -0.9845472396       -0.5417844407       -2.3793539911
 O           8.0     2.5970504249       -0.0022676712       -0.0049132876
 C           6.0     0.0232436296       -0.0096376025       -0.0047243150
 H           1.0     3.3336656149       -0.3531897871       -1.6644706500

          INTERNUCLEAR DISTANCES (ANGS.)
          ------------------------------

                1 F          2 F          3 F          4 O          5 C     

   1 F       0.0000000    2.2422610 *  2.2412211 *  2.2163769 *  1.3672392 *
   2 F       2.2422610 *  0.0000000    2.2263059 *  2.2911274 *  1.3939613 *
   3 F       2.2412211 *  2.2263059 *  0.0000000    2.2918256 *  1.3938260 *
   4 O       2.2163769 *  2.2911274 *  2.2918256 *  0.0000000    1.3620056 *
   5 C       1.3672392 *  1.3939613 *  1.3938260 *  1.3620056 *  0.0000000  
   6 H       2.9016975 *  2.9740518 *  2.3183513 *  0.9786030 *  1.9680613 *

                6 H     

   1 F       2.9016975 *
   2 F       2.9740518 *
   3 F       2.3183513 *
   4 O       0.9786030 *
   5 C       1.9680613 *
   6 H       0.0000000  

  * ... LESS THAN  3.000


     ATOMIC BASIS SET
     ----------------
 THE CONTRACTED PRIMITIVE FUNCTIONS HAVE BEEN UNNORMALIZED
 THE CONTRACTED BASIS FUNCTIONS ARE NOW NORMALIZED TO UNITY

  SHELL TYPE  PRIMITIVE        EXPONENT          CONTRACTION COEFFICIENT(S)

 F         

      1   S       1          7001.7130900    0.001819616901
      1   S       2          1051.3660900    0.013916079607
      1   S       3           239.2856900    0.068405324535
      1   S       4            67.3974453    0.233185760119
      1   S       5            21.5199573    0.471267439240
      1   S       6             7.4031013    0.356618546182

      2   L       7            20.8479528   -0.108506975109    0.071628724237
      2   L       8             4.8083083   -0.146451658147    0.345912102697
      2   L       9             1.3440699    1.128688581135    0.722469956367

      3   L      10             0.3581514    1.000000000000    1.000000000000

 F         

      4   S      11          7001.7130900    0.001819616901
      4   S      12          1051.3660900    0.013916079607
      4   S      13           239.2856900    0.068405324535
      4   S      14            67.3974453    0.233185760119
      4   S      15            21.5199573    0.471267439240
      4   S      16             7.4031013    0.356618546182

      5   L      17            20.8479528   -0.108506975109    0.071628724237
      5   L      18             4.8083083   -0.146451658147    0.345912102697
      5   L      19             1.3440699    1.128688581135    0.722469956367

      6   L      20             0.3581514    1.000000000000    1.000000000000

 F         

      7   S      21          7001.7130900    0.001819616901
      7   S      22          1051.3660900    0.013916079607
      7   S      23           239.2856900    0.068405324535
      7   S      24            67.3974453    0.233185760119
      7   S      25            21.5199573    0.471267439240
      7   S      26             7.4031013    0.356618546182

      8   L      27            20.8479528   -0.108506975109    0.071628724237
      8   L      28             4.8083083   -0.146451658147    0.345912102697
      8   L      29             1.3440699    1.128688581135    0.722469956367

      9   L      30             0.3581514    1.000000000000    1.000000000000

 O         

     10   S      31          5484.6716600    0.001831074430
     10   S      32           825.2349460    0.013950172200
     10   S      33           188.0469580    0.068445078098
     10   S      34            52.9645000    0.232714335992
     10   S      35            16.8975704    0.470192897984
     10   S      36             5.7996353    0.358520852987

     11   L      37            15.5396162   -0.110777549525    0.070874268231
     11   L      38             3.5999336   -0.148026262701    0.339752839147
     11   L      39             1.0137618    1.130767015354    0.727158577316

     12   L      40             0.2700058    1.000000000000    1.000000000000

 C         

     13   S      41          3047.5248800    0.001834737132
     13   S      42           457.3695180    0.014037322813
     13   S      43           103.9486850    0.068842622264
     13   S      44            29.2101553    0.232184443216
     13   S      45             9.2866630    0.467941348435
     13   S      46             3.1639270    0.362311985337

     14   L      47             7.8682723   -0.119332419775    0.068999066591
     14   L      48             1.8812885   -0.160854151696    0.316423960957
     14   L      49             0.5442493    1.143456437840    0.744308290898

     15   L      50             0.1687145    1.000000000000    1.000000000000

 H         

     16   S      51            18.7311370    0.033494604338
     16   S      52             2.8253944    0.234726953484
     16   S      53             0.6401217    0.813757326146

     17   S      54             0.1612778    1.000000000000

 TOTAL NUMBER OF BASIS SET SHELLS             =   17
 NUMBER OF CARTESIAN GAUSSIAN BASIS FUNCTIONS =   47
 NUMBER OF ELECTRONS                          =   42
 CHARGE OF MOLECULE                           =    0
 SPIN MULTIPLICITY                            =    1
 NUMBER OF OCCUPIED ORBITALS (ALPHA)          =   21
 NUMBER OF OCCUPIED ORBITALS (BETA )          =   21
 TOTAL NUMBER OF ATOMS                        =    6
 THE NUCLEAR REPULSION ENERGY IS      199.7260539766

     LEBEDEV GRID-BASED DFT OPTIONS
     ------------------------------
     DFTTYP=B3LYP   
     NRAD  =      96     NLEB  =     302
     NRAD0 =      24     NLEB0 =     110
     SWOFF =    5.00E-03 (PURE SCF -> DFT)
     SWITCH=    3.00E-04 (COARSE -> TIGHT GRID)
     THRESH=    0.00E+00 GTHRE=    1.00E+00

 GRIMME'S EMPIRICAL DISPERSION CORRECTION= F

     $CONTRL OPTIONS
     ---------------
 SCFTYP=RHF          RUNTYP=SADPOINT     EXETYP=RUN     
 MPLEVL=       0     CITYP =NONE         CCTYP =NONE         VBTYP =NONE    
 DFTTYP=B3LYP        TDDFT =NONE    
 MULT  =       1     ICHARG=       0     NZVAR =       0     COORD =UNIQUE  
 PP    =NONE         RELWFN=NONE         LOCAL =NONE         NUMGRD=       F
 ISPHER=      -1     NOSYM =       0     MAXIT =     200     UNITS =ANGS    
 PLTORB=       F     MOLPLT=       F     AIMPAC=       F     FRIEND=        
 NPRINT=       7     IREST =       0     GEOM  =INPUT   
 NORMF =       0     NORMP =       0     ITOL  =      20     ICUT  =       9
 INTTYP=BEST         GRDTYP=BEST         QMTTOL= 1.0E-06

     $SYSTEM OPTIONS
     ---------------
  REPLICATED MEMORY=     1000000 WORDS (ON EVERY NODE).
 DISTRIBUTED MEMDDI=           0 MILLION WORDS IN AGGREGATE,
 MEMDDI DISTRIBUTED OVER   1 PROCESSORS IS           0 WORDS/PROCESSOR.
 TOTAL MEMORY REQUESTED ON EACH PROCESSOR=     1000000 WORDS.
 TIMLIM=      525600.00 MINUTES, OR     365.0 DAYS.
 PARALL= F  BALTYP=  DLB     KDIAG=    0  COREFL= F
 MXSEQ2=     300 MXSEQ3=     150  mem10=         0

          ----------------
          PROPERTIES INPUT
          ----------------

     MOMENTS            FIELD           POTENTIAL          DENSITY
 IEMOM =       1   IEFLD =       0   IEPOT =       0   IEDEN =       0
 WHERE =COMASS     WHERE =NUCLEI     WHERE =NUCLEI     WHERE =NUCLEI  
 OUTPUT=BOTH       OUTPUT=BOTH       OUTPUT=BOTH       OUTPUT=BOTH    
 IEMINT=       0   IEFINT=       0                     IEDINT=       0
                                                       MORB  =       0
          EXTRAPOLATION IN EFFECT
          DIIS IN EFFECT
 ORBITAL PRINTING OPTION: NPREO=     1    47     2     1

     -------------------------------
     INTEGRAL TRANSFORMATION OPTIONS
     -------------------------------
     NWORD  =            0
     CUTOFF = 1.0E-09     MPTRAN =       0
     DIRTRF =       F     AOINTS =DUP     

          ----------------------
          INTEGRAL INPUT OPTIONS
          ----------------------
 NOPK  =       1 NORDER=       0 SCHWRZ=       T

     ------------------------------------------
     THE POINT GROUP IS C1 , NAXIS= 0, ORDER= 1
     ------------------------------------------

     DIMENSIONS OF THE SYMMETRY SUBSPACES ARE
 A   =   47

 ..... DONE SETTING UP THE RUN .....
 STEP CPU TIME =     0.01 TOTAL CPU TIME =          0.0 (      0.0 MIN)
 TOTAL WALL CLOCK TIME=          0.1 SECONDS, CPU UTILIZATION IS    10.00%


          -----------------------------
          STATIONARY POINT LOCATION RUN
          -----------------------------

 OBTAINING INITIAL HESSIAN, HESS=CALC    

     ---------------------------------
     HESSIAN MATRIX CONTROL PARAMETERS
     ---------------------------------
     METHOD=SEMINUM    NVIB  =       2   VIBSIZ= 0.01000
     RDHESS=       F   PURIFY=       F   PRTIFC=       F
     VIBANL=       F   DECOMP=       F   PROJCT=       F
     SCLFAC= 1.00000   PRTSCN=       F   NPRT  =       0
     PULCOR=       F   NPUN  =       0   REDOVB=       T
     HSSTYP=GENERAL 

               * * * EFFICIENCY NOTE * * *
 THIS CALCULATION CAN BE RUN WITH DIFFERENTIATION METHOD=ANALYTIC
 THIS MIGHT BE MORE ACCURATE AND/OR FASTER THAN YOUR CHOICE,
 BUT THE REQUESTED CALCULATION METHOD=SEMINUM  IS PROCEEDING.

1   ATOM  0
                                        -------------------
   COORD  0                             NUCLEAR COORDINATES
                                        -------------------
     VIB  0

                       ATOM             X              Y              Z

                 1  F               -0.807480       2.322095       0.735859
                 2  F               -0.978122      -1.816216       1.630078
                 3  F               -0.984547      -0.541784      -2.379354
                 4  O                2.597050      -0.002268      -0.004913
                 5  C                0.023244      -0.009638      -0.004724
                 6  H                3.333666      -0.353190      -1.664471

          ********************
          1 ELECTRON INTEGRALS
          ********************
 ...... END OF ONE-ELECTRON INTEGRALS ......
 STEP CPU TIME =     0.02 TOTAL CPU TIME =          0.0 (      0.0 MIN)
 TOTAL WALL CLOCK TIME=          0.1 SECONDS, CPU UTILIZATION IS    27.27%

          -------------
          GUESS OPTIONS
          -------------
          GUESS =HUCKEL            NORB  =       0          NORDER=       0
          MIX   =       F          PRTMO =       F          PUNMO =       F
          TOLZ  = 1.0E-08          TOLE  = 1.0E-05
          SYMDEN=       F          PURIFY=       F

 INITIAL GUESS ORBITALS GENERATED BY HUCKEL   ROUTINE.
 HUCKEL GUESS REQUIRES     23481 WORDS.

 SYMMETRIES FOR INITIAL GUESS ORBITALS FOLLOW.   BOTH SET(S).
    21 ORBITALS ARE OCCUPIED (    5 CORE ORBITALS).
     6=A        7=A        8=A        9=A       10=A       11=A       12=A   
    13=A       14=A       15=A       16=A       17=A       18=A       19=A   
    20=A       21=A       22=A       23=A       24=A       25=A       26=A   
    27=A       28=A       29=A       30=A       31=A   
 ...... END OF INITIAL ORBITAL SELECTION ......
 STEP CPU TIME =     0.00 TOTAL CPU TIME =          0.0 (      0.0 MIN)
 TOTAL WALL CLOCK TIME=          0.1 SECONDS, CPU UTILIZATION IS    23.08%

                    ----------------------
                    AO INTEGRAL TECHNOLOGY
                    ----------------------
     S,P,L SHELL ROTATED AXIS INTEGRALS, REPROGRAMMED BY
        KAZUYA ISHIMURA (IMS) AND JOSE SIERRA (SYNSTAR).
     S,P,D,L SHELL ROTATED AXIS INTEGRALS PROGRAMMED BY
        KAZUYA ISHIMURA (INSTITUTE FOR MOLECULAR SCIENCE).
     S,P,D,F,G SHELL TO TOTAL QUARTET ANGULAR MOMENTUM SUM 5,
        ERIC PROGRAM BY GRAHAM FLETCHER (ELORET AND NASA ADVANCED
        SUPERCOMPUTING DIVISION, AMES RESEARCH CENTER).
     S,P,D,F,G,L SHELL GENERAL RYS QUADRATURE PROGRAMMED BY
        MICHEL DUPUIS (PACIFIC NORTHWEST NATIONAL LABORATORY).

          --------------------
          2 ELECTRON INTEGRALS
          --------------------

 THE -PK- OPTION IS OFF, THE INTEGRALS ARE NOT IN SUPERMATRIX FORM.
 STORING   15000 INTEGRALS/RECORD ON DISK, USING 12 BYTES/INTEGRAL.
 TWO ELECTRON INTEGRAL EVALUATION REQUIRES   89509 WORDS OF MEMORY.
 SCHWARZ INEQUALITY OVERHEAD:      1122 INTEGRALS, T=        0.00
 II,JST,KST,LST =  1  1  1  1 NREC =         1 INTLOC =    1
 II,JST,KST,LST =  2  1  1  1 NREC =         1 INTLOC =    2
 II,JST,KST,LST =  3  1  1  1 NREC =         1 INTLOC =   34
 II,JST,KST,LST =  4  1  1  1 NREC =         1 INTLOC =  214
 II,JST,KST,LST =  5  1  1  1 NREC =         1 INTLOC =  455
 II,JST,KST,LST =  6  1  1  1 NREC =         1 INTLOC = 3533
 II,JST,KST,LST =  7  1  1  1 NREC =         1 INTLOC =11257
 II,JST,KST,LST =  8  1  1  1 NREC =         1 INTLOC =12631
 II,JST,KST,LST =  9  1  1  1 NREC =         2 INTLOC =11647
 II,JST,KST,LST = 10  1  1  1 NREC =         4 INTLOC =10607
 II,JST,KST,LST = 11  1  1  1 NREC =         5 INTLOC =   22
 II,JST,KST,LST = 12  1  1  1 NREC =         7 INTLOC =13903
 II,JST,KST,LST = 13  1  1  1 NREC =        12 INTLOC =13215
 II,JST,KST,LST = 14  1  1  1 NREC =        14 INTLOC = 4287
 II,JST,KST,LST = 15  1  1  1 NREC =        21 INTLOC =14442
 II,JST,KST,LST = 16  1  1  1 NREC =        32 INTLOC = 4694
 II,JST,KST,LST = 17  1  1  1 NREC =        35 INTLOC = 1451
 SCHWARZ INEQUALITY TEST SKIPPED        2348 INTEGRAL BLOCKS.
 TOTAL NUMBER OF NONZERO TWO-ELECTRON INTEGRALS =              560672
         38 INTEGRAL RECORDS WERE STORED ON DISK FILE  8.
  ...... END OF TWO-ELECTRON INTEGRALS .....
 STEP CPU TIME =     0.04 TOTAL CPU TIME =          0.1 (      0.0 MIN)
 TOTAL WALL CLOCK TIME=          0.2 SECONDS, CPU UTILIZATION IS    36.84%

          --------------------------
             R-B3LYP SCF CALCULATION
          --------------------------

     NUCLEAR ENERGY =       199.7260539766
     MAXIT =  200     NPUNCH=    2
     EXTRAP=T  DAMP=F  SHIFT=F  RSTRCT=F  DIIS=T  DEM=F  SOSCF=F
         DENSITY MATRIX CONVERGENCE THRESHOLD=  1.00E-05
     COARSE -> FINE DFT GRID SWITCH THRESHOLD=  3.00E-04 (SWITCH IN $DFT)
                   HF -> DFT SWITCH THRESHOLD=  5.00E-03 (SWOFF IN $DFT)
     MEMORY REQUIRED FOR RHF ITERS=    292426 WORDS.

 DFT CODE IS SWITCHING FROM THE FINE GRID NRAD= 96,  NLEB=  302
                      TO THE COARSE GRID NRAD0= 24, NLEB0=  110

     EXCHANGE FUNCTIONAL   =B88&HFX   
     CORRELATION FUNCTIONAL=LYP88&VWN5
     DFT THRESHOLD         =.230E-07
     GRID CHANGE THRESHOLD =.300E-03
 FOR AN EULER-MACLAURIN QUADRATURE USING  96 RADIAL POINTS:
 SMALLEST GAUSSIAN PRIMITIVE EXPONENT=        0.1612777588 OF TYPE -S-
 ON ATOM NUMBER   6 HAS RADIAL NORMALIZATION=  1.000000
  LARGEST GAUSSIAN PRIMITIVE EXPONENT=     7001.7130900000 OF TYPE -S-
 ON ATOM NUMBER   1 HAS RADIAL NORMALIZATION=  1.000000
 DFT IS SWITCHED OFF, PERFORMING PURE SCF UNTIL SWOFF THRESHOLD IS REACHED.

 ITER EX DEM     TOTAL ENERGY        E CHANGE  DENSITY CHANGE    DIIS ERROR
   1  0  0     -410.5691722064  -410.5691722064   0.384757828   0.745017410
          * * *   INITIATING DIIS PROCEDURE   * * *
   2  1  0     -411.4372917848    -0.8681195784   0.067360843   0.150323577
   3  2  0     -411.4793637710    -0.0420719862   0.033955390   0.047313072
   4  3  0     -411.4871294806    -0.0077657096   0.008251584   0.017186360
   5  4  0     -411.4880923247    -0.0009628441   0.002018258   0.002432954
 CONVERGED TO SWOFF, SO DFT CALCULATION IS NOW SWITCHED ON.
          * * *   INITIATING DIIS PROCEDURE   * * *
   6  5  0     -413.1509552080    -1.6628628833   0.097740732   0.065528520
   7  6  0     -413.1688107547    -0.0178555466   0.076718954   0.038913167
   8  7  0     -413.1725832626    -0.0037725079   0.027462280   0.035472710
   9  8  0     -413.1770963805    -0.0045131179   0.003957858   0.008383362
  10  9  0     -413.1772323888    -0.0001360083   0.001165721   0.001024403
  11 10  0     -413.1772338778    -0.0000014890   0.000520287   0.000731980
  12 11  0     -413.1772348602    -0.0000009824   0.000031113   0.000020690
 DFT CODE IS SWITCHING BACK TO THE FINE GRID
          * * *   INITIATING DIIS PROCEDURE   * * *
  13 12  0     -413.1844548818    -0.0072200217   0.002531524   0.001967920
  14 13  0     -413.1844695640    -0.0000146822   0.001505664   0.001150629
  15 14  0     -413.1844731142    -0.0000035502   0.000504662   0.000636884
  16 15  0     -413.1844748417    -0.0000017275   0.000079490   0.000083331
  17 16  0     -413.1844748654    -0.0000000238   0.000023132   0.000021497
  18 17  0     -413.1844748665    -0.0000000011   0.000008737   0.000013069
  19 18  0     -413.1844748670    -0.0000000005   0.000000378   0.000000269

          -----------------
          DENSITY CONVERGED
          -----------------
     TIME TO FORM FOCK OPERATORS=       4.0 SECONDS (       0.2 SEC/ITER)
     TIME TO SOLVE SCF EQUATIONS=       0.0 SECONDS (       0.0 SEC/ITER)

 FINAL R-B3LYP ENERGY IS     -413.1844748670 AFTER  19 ITERATIONS
 DFT EXCHANGE + CORRELATION ENERGY =       -36.8240290279
 TOTAL ELECTRON NUMBER             =        41.9999663801

          ------------
          EIGENVECTORS
          ------------

                      1          2          3          4          5
                  -24.7491   -24.7416   -24.7366   -19.2273   -10.5076
                     A          A          A          A          A   
    1  F  1  S    0.003100   0.994940  -0.004708   0.000023   0.000043
    2  F  1  S    0.000652   0.027723   0.000447   0.000322   0.000409
    3  F  1  X   -0.000053   0.000533  -0.000058   0.000066  -0.000050
    4  F  1  Y   -0.000008  -0.001573  -0.000065   0.000065   0.000039
    5  F  1  Z   -0.000130  -0.000506   0.000095  -0.000002   0.000009
    6  F  1  S   -0.002130  -0.014905  -0.002076  -0.001631  -0.001162
    7  F  1  X    0.000127  -0.001316   0.000131  -0.000940  -0.000444
    8  F  1  Y    0.000767   0.003757   0.001227   0.000329   0.001909
    9  F  1  Z    0.001105   0.001191  -0.000415   0.000249   0.000633
   10  F  2  S    0.001710   0.004770   0.994944   0.000023   0.000047
   11  F  2  S    0.000584   0.000707   0.027603   0.000351   0.000436
   12  F  2  X   -0.000039  -0.000030   0.000642   0.000109  -0.000032
   13  F  2  Y   -0.000040   0.000115   0.001160  -0.000053   0.000001
   14  F  2  Z   -0.000099   0.000052  -0.001042   0.000023  -0.000001
   15  F  2  S   -0.002032  -0.002152  -0.014512  -0.001478  -0.001077
   16  F  2  X    0.000031  -0.000043  -0.001551  -0.001096  -0.000549
   17  F  2  Y   -0.000265  -0.001306  -0.002789  -0.000170  -0.001385
   18  F  2  Z    0.001226   0.000136   0.002486   0.000313   0.001267
   19  F  3  S    0.994952  -0.003042  -0.001631   0.000030   0.000050
   20  F  3  S    0.027655   0.000484   0.000490   0.000524   0.000495
   21  F  3  X    0.000695  -0.000039  -0.000045   0.000108  -0.000025
   22  F  3  Y    0.000348   0.000121  -0.000080  -0.000009   0.000004
   23  F  3  Z    0.001490   0.000015   0.000053  -0.000070  -0.000006
   24  F  3  S   -0.014703  -0.002033  -0.002007  -0.002172  -0.001271
   25  F  3  X   -0.001590  -0.000017   0.000038  -0.001206  -0.000616
   26  F  3  Y   -0.000858  -0.000978   0.000439  -0.000123  -0.000436
   27  F  3  Z   -0.003676  -0.000849  -0.001136  -0.000419  -0.001860
   28  O  4  S    0.000054   0.000042   0.000041   0.995124   0.000044
   29  O  4  S    0.000624   0.000439   0.000457   0.029785   0.000069
   30  O  4  X    0.000031   0.000040   0.000012  -0.001573   0.000556
   31  O  4  Y   -0.000026   0.000055  -0.000060  -0.000364  -0.000028
   32  O  4  Z   -0.000105   0.000056   0.000096  -0.001545  -0.000115
   33  O  4  S   -0.002727  -0.002499  -0.002237  -0.020460  -0.000644
   34  O  4  X    0.001197   0.001396   0.001349   0.005372   0.000921
   35  O  4  Y    0.000294  -0.000908   0.000743   0.000442   0.000151
   36  O  4  Z    0.001332  -0.000456  -0.000879   0.001910   0.000624
   37  C  5  S   -0.000234  -0.000215  -0.000229  -0.000105   0.994965
   38  C  5  S   -0.001046  -0.001042  -0.001052  -0.001198   0.031067
   39  C  5  X   -0.000205  -0.000226  -0.000228   0.000263  -0.000298
   40  C  5  Y   -0.000066   0.000503  -0.000305  -0.000016   0.000141
   41  C  5  Z   -0.000438   0.000181   0.000336  -0.000078  -0.000063
   42  C  5  S    0.009973   0.010335   0.009865   0.012013  -0.006701
   43  C  5  X   -0.001407  -0.000970  -0.001349   0.006286  -0.000957
   44  C  5  Y   -0.000897   0.004163  -0.003072  -0.000062  -0.000026
   45  C  5  Z   -0.004363   0.001349   0.002873  -0.000674  -0.000120
   46  H  6  S    0.000497   0.000018  -0.000012   0.000589   0.000200
   47  H  6  S   -0.000126  -0.000374  -0.000337   0.001784   0.000954

                      6          7          8          9         10
                   -1.3285    -1.2413    -1.2302    -1.1208    -0.7256
                     A          A          A          A          A   
    1  F  1  S   -0.122386  -0.166819   0.076267   0.041605   0.062097
    2  F  1  S    0.258183   0.355452  -0.162671  -0.089142  -0.137535
    3  F  1  X    0.023778   0.028640  -0.013129   0.014364   0.079200
    4  F  1  Y   -0.074277  -0.071628   0.026553   0.009956  -0.165237
    5  F  1  Z   -0.024873  -0.017624   0.020078   0.002588  -0.044603
    6  F  1  S    0.284459   0.397249  -0.182630  -0.104116  -0.191478
    7  F  1  X    0.012579   0.019739  -0.009334   0.008678   0.040016
    8  F  1  Y   -0.045985  -0.047609   0.016919   0.009161  -0.090632
    9  F  1  Z   -0.015133  -0.010559   0.016407   0.004163  -0.023845
   10  F  2  S   -0.100848   0.010395  -0.198412   0.034637   0.057552
   11  F  2  S    0.212322  -0.022141   0.422875  -0.074692  -0.127736
   12  F  2  X    0.022956  -0.001645   0.037090   0.011637   0.080683
   13  F  2  Y    0.047056   0.004398   0.060124  -0.007443   0.116201
   14  F  2  Z   -0.043071   0.011642  -0.054104   0.005721  -0.096136
   15  F  2  S    0.234566  -0.024995   0.472674  -0.085154  -0.175486
   16  F  2  X    0.012672  -0.001064   0.026086   0.008526   0.041529
   17  F  2  Y    0.030473   0.005626   0.041030  -0.005387   0.065204
   18  F  2  Z   -0.026806   0.010271  -0.037367   0.005706  -0.053057
   19  F  3  S   -0.121614   0.160394   0.093272   0.044304   0.046661
   20  F  3  S    0.256247  -0.341098  -0.198500  -0.095192  -0.103636
   21  F  3  X    0.029819  -0.033212  -0.019516   0.013134   0.058522
   22  F  3  Y    0.016485  -0.007525  -0.017399  -0.002524   0.031845
   23  F  3  Z    0.069815  -0.061861  -0.030111  -0.009680   0.140619
   24  F  3  S    0.283041  -0.384421  -0.224485  -0.112732  -0.142244
   25  F  3  X    0.018564  -0.025408  -0.015478   0.009484   0.028345
   26  F  3  Y    0.010982  -0.003140  -0.015185  -0.002867   0.018973
   27  F  3  Z    0.044097  -0.043279  -0.021147  -0.010490   0.082850
   28  O  4  S   -0.041166   0.000297   0.000464  -0.199877   0.048257
   29  O  4  S    0.087559  -0.000196  -0.001106   0.437953  -0.107838
   30  O  4  X   -0.040981  -0.002494  -0.001448  -0.092449  -0.265748
   31  O  4  Y   -0.001973   0.009033  -0.007973  -0.022314   0.035260
   32  O  4  Z   -0.014316   0.009514   0.008710  -0.099071   0.166779
   33  O  4  S    0.088268  -0.000227  -0.000601   0.459588  -0.147479
   34  O  4  X   -0.022072   0.002740   0.000934  -0.059725  -0.104780
   35  O  4  Y   -0.000992   0.008777  -0.008657  -0.010968   0.015092
   36  O  4  Z   -0.008364   0.007810   0.007801  -0.047922   0.072019
   37  C  5  S   -0.105768  -0.002325  -0.006591  -0.044379  -0.139047
   38  C  5  S    0.234929   0.005768   0.015322   0.102456   0.373246
   39  C  5  X   -0.039366   0.003850  -0.008624   0.181943   0.063473
   40  C  5  Y    0.013211   0.111623  -0.107108  -0.005483   0.011235
   41  C  5  Z   -0.006664   0.104838   0.102700  -0.007356   0.028707
   42  C  5  S   -0.010422   0.000577   0.003053  -0.005886   0.161323
   43  C  5  X    0.009441   0.000081   0.002197  -0.033668   0.031173
   44  C  5  Y   -0.004088  -0.024344   0.022300   0.000446  -0.001105
   45  C  5  Z   -0.001410  -0.022054  -0.020794  -0.003690   0.001254
   46  H  6  S    0.016542  -0.003627  -0.002416   0.123596  -0.176795
   47  H  6  S   -0.001612  -0.005136  -0.003368  -0.005319  -0.062509

                     11         12         13         14         15
                   -0.6411    -0.6020    -0.5976    -0.4856    -0.4694
                     A          A          A          A          A   
    1  F  1  S   -0.019728   0.057935   0.023732   0.002668  -0.002697
    2  F  1  S    0.045487  -0.123505  -0.051684  -0.010743   0.014000
    3  F  1  X    0.094831   0.151401  -0.016070   0.113094  -0.305277
    4  F  1  Y    0.116605  -0.293798  -0.213922  -0.111410   0.084178
    5  F  1  Z    0.093670  -0.160728   0.115994   0.129727  -0.132317
    6  F  1  S    0.056365  -0.217230  -0.084628   0.019249  -0.039100
    7  F  1  X    0.054031   0.084651  -0.007053   0.059294  -0.225733
    8  F  1  Y    0.072141  -0.162873  -0.125193  -0.094977   0.066772
    9  F  1  Z    0.055623  -0.092671   0.071190   0.096023  -0.088591
   10  F  2  S   -0.022128  -0.042353   0.045730   0.002871   0.002835
   11  F  2  S    0.050589   0.090008  -0.097645  -0.011625  -0.010855
   12  F  2  X    0.068016  -0.151315   0.073178   0.133253   0.224796
   13  F  2  Y   -0.077243  -0.080533   0.282828   0.127036   0.156187
   14  F  2  Z    0.133144   0.224688  -0.098266   0.076492   0.136522
   15  F  2  S    0.065313   0.159525  -0.171444   0.018672   0.019897
   16  F  2  X    0.037675  -0.083766   0.041709   0.075884   0.169854
   17  F  2  Y   -0.048121  -0.040437   0.163361   0.108294   0.108544
   18  F  2  Z    0.079281   0.129224  -0.052515   0.050915   0.092759
   19  F  3  S   -0.059062  -0.010073  -0.039931   0.000529  -0.000085
   20  F  3  S    0.129981   0.021938   0.085453  -0.005137   0.000688
   21  F  3  X   -0.042563  -0.050595  -0.223605   0.426339   0.014258
   22  F  3  Y   -0.069345   0.170821  -0.087375  -0.053180   0.444749
   23  F  3  Z   -0.303333  -0.091583  -0.184066  -0.204450  -0.108515
   24  F  3  S    0.200042   0.035951   0.150972   0.012059  -0.000761
   25  F  3  X   -0.024685  -0.029681  -0.128119   0.288009   0.011478
   26  F  3  Y   -0.040309   0.106533  -0.051426  -0.034442   0.305850
   27  F  3  Z   -0.174294  -0.054921  -0.105144  -0.133134  -0.077048
   28  O  4  S   -0.004137  -0.005753  -0.029296   0.059570  -0.003099
   29  O  4  S    0.017225   0.013284   0.065210  -0.127993   0.007862
   30  O  4  X   -0.233398   0.043069   0.158742   0.014493  -0.020853
   31  O  4  Y    0.045092   0.132226  -0.023140  -0.057950  -0.096072
   32  O  4  Z    0.205842  -0.028763   0.046221  -0.257633   0.034956
   33  O  4  S   -0.024517   0.021681   0.117670  -0.308204   0.011323
   34  O  4  X   -0.088672   0.019199   0.066408   0.024010  -0.010507
   35  O  4  Y    0.024381   0.073437  -0.011908  -0.036331  -0.103285
   36  O  4  Z    0.104823  -0.013746   0.030560  -0.161621   0.025008
   37  C  5  S    0.037563   0.002914   0.000504  -0.015344  -0.001148
   38  C  5  S   -0.109858  -0.003941   0.009377   0.038592  -0.001483
   39  C  5  X    0.328203  -0.036401  -0.165605   0.023430   0.007182
   40  C  5  Y    0.032095   0.385876  -0.008101   0.007295  -0.059240
   41  C  5  Z    0.150796  -0.006637   0.348391   0.038781   0.010914
   42  C  5  S   -0.009895  -0.014330  -0.032433   0.040793   0.020182
   43  C  5  X    0.077547  -0.013918  -0.069301   0.149829  -0.008133
   44  C  5  Y    0.006886   0.096104  -0.007326  -0.009419   0.097826
   45  C  5  Z    0.035197  -0.006375   0.095606  -0.021003  -0.009716
   46  H  6  S   -0.157774   0.017525   0.048529   0.120823  -0.012655
   47  H  6  S   -0.055945   0.009248   0.029653   0.088862  -0.007439

                     16         17         18         19         20
                   -0.4586    -0.4406    -0.4352    -0.4174    -0.4101
                     A          A          A          A          A   
    1  F  1  S   -0.001687  -0.000405  -0.000160  -0.000780   0.000309
    2  F  1  S    0.010290   0.011402  -0.003622  -0.000062  -0.000945
    3  F  1  X   -0.246224   0.399270   0.104199  -0.008127  -0.008700
    4  F  1  Y   -0.073804   0.296028  -0.128017  -0.146792  -0.022151
    5  F  1  Z    0.379216   0.169902   0.177069   0.362387  -0.078697
    6  F  1  S   -0.033443  -0.064703   0.026683   0.015320   0.002447
    7  F  1  X   -0.166331   0.250830   0.063676  -0.000380  -0.010352
    8  F  1  Y   -0.035126   0.219514  -0.092281  -0.102814  -0.014909
    9  F  1  Z    0.256771   0.119784   0.093538   0.243627  -0.058237
   10  F  2  S   -0.004058   0.001210  -0.000806   0.000055   0.000019
   11  F  2  S    0.018295  -0.010291   0.009555   0.000644   0.000314
   12  F  2  X   -0.291647  -0.015984   0.422832  -0.032015  -0.012570
   13  F  2  Y    0.136252   0.250626  -0.213127  -0.310916  -0.055280
   14  F  2  Z    0.276222   0.013570   0.263727  -0.334553  -0.128627
   15  F  2  S   -0.038897   0.041514  -0.042752  -0.005227   0.003096
   16  F  2  X   -0.204374  -0.009672   0.266355  -0.021898  -0.014214
   17  F  2  Y    0.076482   0.170324  -0.159797  -0.208752  -0.039538
   18  F  2  Z    0.196801  -0.019059   0.181586  -0.221236  -0.091059
   19  F  3  S    0.002395  -0.000669  -0.001786   0.000877  -0.000047
   20  F  3  S   -0.012655  -0.006678  -0.006018  -0.000404  -0.004803
   21  F  3  X    0.099505  -0.030130  -0.063874  -0.027631   0.406544
   22  F  3  Y   -0.000519   0.265853  -0.038521   0.339931   0.011973
   23  F  3  Z    0.156080   0.120395   0.259125  -0.103182  -0.061689
   24  F  3  S    0.037718   0.053748   0.071249  -0.015013   0.027079
   25  F  3  X    0.097743  -0.017353  -0.040894  -0.020726   0.273341
   26  F  3  Y    0.001159   0.165644  -0.005595   0.229152   0.010604
   27  F  3  Z    0.112350   0.106751   0.200557  -0.074084  -0.029124
   28  O  4  S   -0.022476  -0.001959  -0.004047   0.005857  -0.054563
   29  O  4  S    0.044455   0.009166   0.017383  -0.014874   0.136029
   30  O  4  X   -0.070624   0.104133   0.150579  -0.035144   0.272975
   31  O  4  Y    0.019087   0.156279  -0.089982  -0.021879   0.084558
   32  O  4  Z    0.100271   0.004069   0.078249  -0.039280   0.385370
   33  O  4  S    0.146231  -0.042197  -0.056719  -0.009997   0.129779
   34  O  4  X   -0.062400   0.087278   0.129689  -0.029569   0.215466
   35  O  4  Y    0.005863   0.098201  -0.059183  -0.009487   0.055231
   36  O  4  Z    0.020910  -0.003397   0.043775  -0.021381   0.248863
   37  C  5  S    0.004766   0.003668   0.005513  -0.002145   0.018232
   38  C  5  S   -0.011538  -0.008903  -0.014769   0.006375  -0.053384
   39  C  5  X    0.021758  -0.047983  -0.059155   0.017300  -0.136761
   40  C  5  Y   -0.000021  -0.053265   0.027640   0.002956   0.003019
   41  C  5  Z   -0.073642  -0.009539  -0.034845   0.004404   0.005984
   42  C  5  S   -0.026422   0.016643   0.021342  -0.005500   0.018855
   43  C  5  X   -0.099814   0.077193   0.109601  -0.015549   0.079443
   44  C  5  Y    0.014844   0.146101  -0.063704  -0.026841   0.003483
   45  C  5  Z    0.127917   0.057154   0.124770  -0.019018   0.019301
   46  H  6  S   -0.071579   0.013109   0.016519   0.010512  -0.102607
   47  H  6  S   -0.029982   0.002968  -0.000692   0.005334  -0.037998

                     21         22         23         24         25
                   -0.3711     0.0242     0.1037     0.1234     0.1399
                     A          A          A          A          A   
    1  F  1  S    0.004498   0.018021   0.021087  -0.011728   0.076404
    2  F  1  S   -0.004930  -0.040573  -0.055997   0.033866  -0.159386
    3  F  1  X   -0.240904  -0.073050   0.029509  -0.045641  -0.112146
    4  F  1  Y    0.010093   0.093463   0.094908  -0.133182   0.360244
    5  F  1  Z    0.055992  -0.029839   0.140848   0.117893   0.126406
    6  F  1  S   -0.050594  -0.136812  -0.133948   0.061174  -0.688928
    7  F  1  X   -0.169458  -0.058418   0.020501  -0.047964  -0.152338
    8  F  1  Y    0.022893   0.115854   0.106384  -0.133526   0.462725
    9  F  1  Z    0.048945  -0.026967   0.148519   0.124585   0.157938
   10  F  2  S   -0.003183   0.021417   0.025709  -0.071974  -0.005475
   11  F  2  S    0.001582  -0.047010  -0.064676   0.154165   0.002042
   12  F  2  X    0.224704  -0.092109   0.001795   0.148387   0.093689
   13  F  2  Y   -0.021631  -0.102118  -0.047000   0.298335  -0.104844
   14  F  2  Z   -0.044731   0.033015   0.184351  -0.222320  -0.094111
   15  F  2  S    0.043374  -0.164461  -0.174506   0.607521   0.090928
   16  F  2  X    0.159927  -0.078954  -0.009134   0.184120   0.108423
   17  F  2  Y   -0.005329  -0.123854  -0.056980   0.358471  -0.093999
   18  F  2  Z   -0.046391   0.046820   0.200778  -0.273935  -0.113237
   19  F  3  S   -0.000008   0.000951   0.079481   0.008334  -0.000859
   20  F  3  S    0.000196  -0.016253  -0.176351  -0.011770  -0.004983
   21  F  3  X   -0.000105  -0.025667  -0.174920  -0.108788   0.085040
   22  F  3  Y   -0.073529   0.022834  -0.082076  -0.100575  -0.155574
   23  F  3  Z    0.013903   0.067457  -0.390401   0.047882  -0.010006
   24  F  3  S   -0.000408   0.045325  -0.645292  -0.102967   0.041826
   25  F  3  X    0.000013  -0.003657  -0.208257  -0.114515   0.090251
   26  F  3  Y   -0.060610   0.021626  -0.100292  -0.111093  -0.156638
   27  F  3  Z    0.011110   0.058745  -0.477786   0.017557   0.006642
   28  O  4  S   -0.001663   0.083299   0.020675   0.009860  -0.010192
   29  O  4  S    0.004125  -0.172182  -0.056900  -0.011511   0.016937
   30  O  4  X   -0.011948  -0.054573   0.154093  -0.038102  -0.027476
   31  O  4  Y    0.583737   0.066496   0.034475  -0.094397  -0.188395
   32  O  4  Z   -0.121825   0.243871   0.106975   0.197143  -0.055416
   33  O  4  S    0.006875  -0.863323  -0.211392  -0.235130   0.188189
   34  O  4  X   -0.007411  -0.134712   0.215433  -0.038309  -0.062297
   35  O  4  Y    0.406607   0.098685   0.041032  -0.109232  -0.242885
   36  O  4  Z   -0.086708   0.398928   0.128942   0.270120  -0.077811
   37  C  5  S    0.000248  -0.041137  -0.140968   0.080165  -0.060390
   38  C  5  S   -0.000840   0.094298   0.347703  -0.243054   0.179307
   39  C  5  X    0.001670   0.101211  -0.237055   0.250566  -0.265838
   40  C  5  Y    0.014487   0.010469  -0.143694   0.375557   0.680008
   41  C  5  Z   -0.005607   0.231298  -0.494024  -0.532494   0.165023
   42  C  5  S    0.002104   0.229997   1.073556  -0.477104   0.367414
   43  C  5  X   -0.001325  -0.031585  -0.125878   0.245646  -0.306442
   44  C  5  Y    0.071052   0.017879  -0.138125   0.375565   0.756481
   45  C  5  Z   -0.014433   0.218291  -0.487518  -0.550950   0.192100
   46  H  6  S   -0.003745   0.208816  -0.074820  -0.024856   0.027252
   47  H  6  S   -0.004520   1.337583   0.042471   0.413913  -0.158354

                     26         27         28         29         30
                    0.2249     0.5032     0.5054     0.5128     0.5885
                     A          A          A          A          A   
    1  F  1  S    0.015059   0.023635   0.007444  -0.020902   0.036318
    2  F  1  S   -0.033849  -0.009557   0.008707   0.032517  -0.107702
    3  F  1  X   -0.168253   0.024705  -0.020949  -0.176783  -0.029351
    4  F  1  Y    0.027061  -0.201869  -0.052345   0.047945  -0.106309
    5  F  1  Z   -0.008616   0.024289  -0.156134   0.055654  -0.032633
    6  F  1  S   -0.142189  -0.689094  -0.293577   0.450637  -0.498826
    7  F  1  X   -0.213104  -0.113145  -0.100976  -0.148623  -0.153952
    8  F  1  Y    0.045842   0.101482   0.081551  -0.212834   0.253219
    9  F  1  Z   -0.009300   0.143448  -0.163006  -0.011054   0.085864
   10  F  2  S    0.001653  -0.023481   0.007408  -0.026513   0.036079
   11  F  2  S   -0.009839   0.015919   0.002489   0.037380  -0.109156
   12  F  2  X   -0.141917  -0.010769  -0.026182  -0.180404  -0.040184
   13  F  2  Y    0.004822  -0.175551  -0.026950  -0.027494   0.077959
   14  F  2  Z   -0.052373   0.046857  -0.156679   0.066947  -0.076457
   15  F  2  S    0.012036   0.628674  -0.246350   0.568387  -0.459770
   16  F  2  X   -0.165119   0.127601  -0.103238  -0.099476  -0.162850
   17  F  2  Y    0.008922   0.026930  -0.136437   0.216515  -0.186133
   18  F  2  Z   -0.066607  -0.164969  -0.118566  -0.141962   0.176850
   19  F  3  S   -0.010486   0.000867  -0.032371  -0.016496   0.032848
   20  F  3  S    0.017531  -0.002156   0.033206   0.038645  -0.086047
   21  F  3  X   -0.102900   0.003082  -0.044921  -0.165368  -0.010396
   22  F  3  Y   -0.008499  -0.165421  -0.044127  -0.005451   0.020478
   23  F  3  Z    0.049644   0.040943  -0.195093   0.010431   0.115087
   24  F  3  S    0.130029  -0.012924   0.815468   0.254055  -0.495175
   25  F  3  X   -0.116835  -0.003028   0.106465  -0.156930  -0.173053
   26  F  3  Y    0.000845  -0.199660   0.042274   0.029420  -0.055827
   27  F  3  Z    0.100158   0.037185   0.205112   0.188296  -0.252157
   28  O  4  S    0.077468   0.000529   0.015501   0.001022   0.022917
   29  O  4  S   -0.170015   0.003931  -0.046073   0.059911  -0.050002
   30  O  4  X    0.467529   0.003138  -0.155235  -0.122319  -0.078557
   31  O  4  Y   -0.037752  -0.202181  -0.014819  -0.008118  -0.035336
   32  O  4  Z   -0.105490   0.043784  -0.071649   0.004112  -0.227304
   33  O  4  S   -0.878837  -0.033050  -0.256277  -0.778350  -0.986441
   34  O  4  X    0.918148   0.024460   0.082500   0.208953   0.595266
   35  O  4  Y   -0.073099  -0.233343  -0.054282  -0.009781  -0.006541
   36  O  4  Z   -0.216615   0.048171  -0.222723   0.030136   0.003802
   37  C  5  S   -0.095394   0.000839   0.006802   0.003291  -0.020960
   38  C  5  S    0.283062  -0.044159   0.083694   0.378969  -1.617866
   39  C  5  X    0.671677   0.033576  -0.204569  -0.812533  -0.244996
   40  C  5  Y    0.099334  -0.833748  -0.190970   0.029391   0.029260
   41  C  5  Z    0.071816   0.180250  -0.816586   0.225560   0.043563
   42  C  5  S    1.095926   0.105300  -0.123535  -0.570478   3.439472
   43  C  5  X    1.107813  -0.000887   0.490364   2.033792   0.814956
   44  C  5  Y    0.153605   1.884972   0.430699  -0.002630  -0.004987
   45  C  5  Z    0.171560  -0.408061   1.815597  -0.497863  -0.055459
   46  H  6  S   -0.007787  -0.005892   0.157309  -0.005722  -0.216323
   47  H  6  S   -0.596070  -0.005107   0.032155  -0.230764  -0.274121

                     31         32         33         34         35
                    0.7889     0.8905     0.9252     1.0570     1.1500
                     A          A          A          A          A   
    1  F  1  S    0.007577  -0.009580  -0.004265   0.009426   0.034286
    2  F  1  S   -0.043032   0.015713   0.044753  -0.020914  -0.246314
    3  F  1  X   -0.024628  -0.222463  -0.026330   0.205293  -0.163230
    4  F  1  Y   -0.036877   0.021341  -0.082322   0.052381  -0.264378
    5  F  1  Z    0.033034  -0.100606   0.201882  -0.233453  -0.359262
    6  F  1  S   -0.053081   0.241435  -0.028533  -0.165201  -0.057541
    7  F  1  X   -0.017206   0.227034   0.009435  -0.289062   0.124598
    8  F  1  Y    0.041848  -0.062403   0.079135   0.045631   0.384659
    9  F  1  Z    0.000970   0.024229  -0.113939   0.254876   0.495265
   10  F  2  S    0.006812   0.013857  -0.005589   0.012612  -0.036977
   11  F  2  S   -0.040613  -0.044671   0.049890  -0.043473   0.262627
   12  F  2  X   -0.031892   0.187766  -0.028422   0.191360   0.188334
   13  F  2  Y    0.046756   0.082196   0.155519  -0.149637  -0.170858
   14  F  2  Z    0.010415   0.100849   0.150844  -0.201795   0.427079
   15  F  2  S   -0.037584  -0.226161  -0.002767  -0.151755   0.064438
   16  F  2  X   -0.007172  -0.214122   0.011537  -0.297204  -0.137853
   17  F  2  Y   -0.037038  -0.089081  -0.113372   0.072194   0.250199
   18  F  2  Z    0.016602   0.000123  -0.083196   0.262414  -0.592838
   19  F  3  S    0.010308   0.001532   0.010582  -0.004460   0.003103
   20  F  3  S   -0.058261  -0.006844  -0.005479   0.070063  -0.027842
   21  F  3  X   -0.015966   0.017336   0.293123  -0.250113  -0.012866
   22  F  3  Y   -0.009296   0.238234  -0.021144   0.037691   0.490785
   23  F  3  Z   -0.017437  -0.056831  -0.049364   0.113796  -0.088961
   24  F  3  S   -0.091161  -0.016593  -0.277450  -0.122789   0.013108
   25  F  3  X   -0.017510  -0.016413  -0.343695   0.200746   0.008965
   26  F  3  Y   -0.004219  -0.114768  -0.007230  -0.044089  -0.656996
   27  F  3  Z   -0.028661   0.019387  -0.048464  -0.151842   0.119851
   28  O  4  S    0.024403   0.003160   0.058262   0.015674   0.002748
   29  O  4  S   -0.165971  -0.026820  -0.378433  -0.184821  -0.035089
   30  O  4  X    0.197255  -0.010665  -0.657891  -0.550817   0.008042
   31  O  4  Y    0.129781  -0.831827  -0.007696   0.082566   0.267263
   32  O  4  Z    0.580897   0.158284  -0.219300   0.519797  -0.071112
   33  O  4  S    0.108293   0.025164   0.023269  -0.027644   0.025825
   34  O  4  X   -0.351923   0.008628   1.069996   1.377684  -0.013206
   35  O  4  Y   -0.067658   1.124748   0.052928  -0.183486  -0.525607
   36  O  4  Z   -0.272019  -0.203421   0.505932  -1.096545   0.150494
   37  C  5  S   -0.021761  -0.001109   0.001054  -0.004471   0.000870
   38  C  5  S   -0.522700  -0.013787   0.151974   0.002586  -0.007581
   39  C  5  X   -0.087165  -0.003193   0.119005   0.035483   0.000216
   40  C  5  Y    0.005799   0.048289   0.011307   0.030940   0.096876
   41  C  5  Z    0.021865  -0.011063   0.067092   0.115965  -0.023607
   42  C  5  S    0.711414   0.034220   0.713144   1.322320  -0.003779
   43  C  5  X    0.178061  -0.019097   0.297060   0.620555   0.028491
   44  C  5  Y   -0.016205  -0.705741  -0.073370   0.003962   0.682575
   45  C  5  Z   -0.140690   0.127992  -0.522906   0.136864  -0.195074
   46  H  6  S    1.067007   0.031841   0.573844  -0.264974   0.024060
   47  H  6  S   -1.053276  -0.021818  -0.674059  -0.916531  -0.022821

                     36         37         38         39         40
                    1.1723     1.1933     1.2592     1.2899     1.3346
                     A          A          A          A          A   
    1  F  1  S    0.031959  -0.027427   0.024422   0.007955   0.000945
    2  F  1  S   -0.240237   0.154204  -0.248613  -0.089301  -0.010324
    3  F  1  X    0.012466   0.012945   0.562109   0.335949  -0.010145
    4  F  1  Y   -0.394262   0.447091  -0.110469  -0.081745   0.143134
    5  F  1  Z    0.222365   0.127825  -0.088364   0.076121  -0.538197
    6  F  1  S    0.001503   0.057690   0.261760   0.147126   0.016460
    7  F  1  X   -0.070986   0.017076  -0.702329  -0.396649   0.012563
    8  F  1  Y    0.579233  -0.697015   0.171721   0.099748  -0.180960
    9  F  1  Z   -0.300973  -0.201840   0.108616  -0.063419   0.687321
   10  F  2  S    0.026225  -0.022201  -0.030959   0.007639  -0.000464
   11  F  2  S   -0.200806   0.117256   0.304556  -0.082640   0.006146
   12  F  2  X    0.003211   0.056687  -0.593797   0.297278   0.019404
   13  F  2  Y    0.408255  -0.337955  -0.116967   0.115399   0.360482
   14  F  2  Z    0.090315   0.265689   0.171363   0.021861   0.396985
   15  F  2  S    0.018567   0.066258  -0.290337   0.119255  -0.008550
   16  F  2  X   -0.059344  -0.027935   0.736701  -0.342868  -0.026414
   17  F  2  Y   -0.581834   0.512267   0.193003  -0.127850  -0.455246
   18  F  2  Z   -0.112005  -0.408091  -0.234092   0.005388  -0.500964
   19  F  3  S   -0.050647  -0.035308   0.000254  -0.012345  -0.000331
   20  F  3  S    0.413226   0.245142  -0.004361   0.130058   0.004162
   21  F  3  X   -0.015537  -0.098671   0.011270  -0.655724  -0.008799
   22  F  3  Y   -0.056689  -0.119139   0.076096   0.008114  -0.536354
   23  F  3  Z   -0.470601  -0.504441  -0.026754   0.016905   0.089255
   24  F  3  S   -0.089667  -0.048012   0.002849  -0.174817  -0.011908
   25  F  3  X    0.080513   0.159956  -0.015785   0.850198   0.009469
   26  F  3  Y    0.087255   0.181977  -0.066399  -0.005072   0.688941
   27  F  3  Z    0.671615   0.765526   0.031256  -0.014040  -0.114457
   28  O  4  S   -0.014024   0.016324  -0.001314   0.010715  -0.000096
   29  O  4  S    0.102917  -0.420012   0.021585  -0.030330   0.001072
   30  O  4  X   -0.015577   0.001366  -0.011198   0.052675  -0.004665
   31  O  4  Y    0.064872   0.003962  -0.251642  -0.095154   0.000816
   32  O  4  Z    0.234463   0.007502   0.052051  -0.371470   0.005894
   33  O  4  S   -0.121583   0.586443  -0.039498   0.057303  -0.004819
   34  O  4  X    0.193830  -0.075147   0.015183  -0.337625   0.016733
   35  O  4  Y   -0.171783  -0.028752   0.430173   0.226565   0.002145
   36  O  4  Z   -0.669400  -0.108860  -0.074746   0.898649  -0.012275
   37  C  5  S    0.000828  -0.000629   0.001126   0.003376  -0.000021
   38  C  5  S    0.017025  -0.683105  -0.042607   0.119346  -0.002118
   39  C  5  X   -0.008310   0.123625   0.027471   0.001959   0.001174
   40  C  5  Y    0.060445  -0.010438   0.219962   0.024895   0.011466
   41  C  5  Z    0.184353   0.056637  -0.061157   0.120257   0.014200
   42  C  5  S    0.224967  -0.376429   0.004775  -0.362988   0.017676
   43  C  5  X    0.118964   0.183057   0.025004  -0.259744   0.010468
   44  C  5  Y    0.184622  -0.020114  -0.182476  -0.080085  -0.022168
   45  C  5  Z    0.621365  -0.030064   0.023359  -0.247257  -0.018961
   46  H  6  S   -0.390669  -0.121107   0.006816   0.464266  -0.007602
   47  H  6  S    0.052915  -0.124257   0.005556   0.107462  -0.010033

                     41         42         43         44         45
                    1.4629     1.4713     1.5020     1.7244     1.9917
                     A          A          A          A          A   
    1  F  1  S    0.002112  -0.001696   0.001904  -0.002943   0.053370
    2  F  1  S    0.093455   0.055578   0.014731   0.003570  -1.233516
    3  F  1  X   -0.197623   0.378668   0.298078  -0.190955  -0.129136
    4  F  1  Y    0.411163   0.307542   0.101380  -0.103048   0.234598
    5  F  1  Z    0.117838  -0.255274   0.410128  -0.004423   0.126968
    6  F  1  S   -0.605946  -0.167082  -0.159280   0.085019   2.031565
    7  F  1  X    0.285118  -0.636703  -0.560933   0.589706   0.375612
    8  F  1  Y   -0.464026  -0.471191  -0.102834   0.173337  -0.636766
    9  F  1  Z   -0.133915   0.463909  -0.715195  -0.000976  -0.386940
   10  F  2  S    0.003818  -0.003701   0.002548  -0.008384  -0.048115
   11  F  2  S   -0.071117  -0.082533   0.006490   0.125983   1.108499
   12  F  2  X   -0.358049   0.159811   0.308755  -0.209613   0.139470
   13  F  2  Y    0.379070   0.352396   0.068005   0.110979   0.117474
   14  F  2  Z    0.152203  -0.270845   0.448226  -0.064084  -0.203875
   15  F  2  S    0.137241   0.585282  -0.143419  -0.172706  -1.826571
   16  F  2  X    0.588693  -0.208756  -0.577442   0.589873  -0.406509
   17  F  2  Y   -0.619834  -0.400726  -0.178008  -0.218502  -0.294445
   18  F  2  Z   -0.287146   0.288066  -0.737047   0.143629   0.600975
   19  F  3  S    0.003567  -0.002521  -0.010887  -0.023628  -0.004813
   20  F  3  S   -0.075513   0.053068   0.003268   0.352101   0.129591
   21  F  3  X   -0.319589   0.321874   0.196765  -0.149405   0.016382
   22  F  3  Y    0.368133   0.329324   0.064995   0.041093  -0.108527
   23  F  3  Z    0.084201  -0.214046   0.416883   0.228313   0.040574
   24  F  3  S    0.158188  -0.103628   0.526519  -0.371771  -0.242608
   25  F  3  X    0.542368  -0.547674  -0.290999   0.496514  -0.057249
   26  F  3  Y   -0.630748  -0.573640  -0.057137  -0.066275   0.382275
   27  F  3  Z   -0.105807   0.347467  -0.461507  -0.424897  -0.154309
   28  O  4  S   -0.019836   0.018635   0.006254   0.016247  -0.001236
   29  O  4  S    0.359667  -0.324185  -0.122438  -1.695755   0.124971
   30  O  4  X   -0.185592   0.175826   0.098545   0.220952  -0.026125
   31  O  4  Y    0.108851   0.058011   0.029710   0.006391  -0.034122
   32  O  4  Z    0.066491  -0.084566   0.182896   0.019625   0.006097
   33  O  4  S   -0.197494   0.109793  -0.272200   4.157607  -0.236808
   34  O  4  X    0.322003  -0.269500   0.123888  -1.461717   0.096984
   35  O  4  Y   -0.394899  -0.253799  -0.129154  -0.050228   0.390577
   36  O  4  Z   -0.193617   0.273821  -0.729771  -0.273356  -0.030584
   37  C  5  S   -0.004162  -0.000093  -0.005602   0.034838  -0.006697
   38  C  5  S   -0.166359   0.133953   0.000036   0.286616  -0.037365
   39  C  5  X    0.184143  -0.184240  -0.144790  -0.232423   0.010913
   40  C  5  Y   -0.252582  -0.217168  -0.057048  -0.026910  -0.326887
   41  C  5  Z   -0.077279   0.155307  -0.284349  -0.059793   0.032634
   42  C  5  S    0.269640  -0.187568   0.301081  -2.338313   0.153971
   43  C  5  X   -0.571359   0.633585   0.938392  -2.423093   0.037017
   44  C  5  Y    1.009227   0.809013   0.223808  -0.079445  -1.518251
   45  C  5  Z    0.344509  -0.653855   1.179581   0.079016   0.165745
   46  H  6  S   -0.027295   0.007260  -0.313702  -0.401311   0.037399
   47  H  6  S   -0.015763   0.007728  -0.084054   0.013901   0.005217

                     46         47
                    2.0281     2.5125
                     A          A   
    1  F  1  S   -0.024332  -0.019651
    2  F  1  S    0.588908   1.151851
    3  F  1  X    0.048355   0.016424
    4  F  1  Y   -0.156550  -0.133676
    5  F  1  Z    0.096543  -0.051338
    6  F  1  S   -1.003483  -2.496148
    7  F  1  X   -0.142315  -0.200397
    8  F  1  Y    0.477581   0.899477
    9  F  1  Z   -0.341619   0.315429
   10  F  2  S   -0.034606  -0.019283
   11  F  2  S    0.818070   1.104756
   12  F  2  X    0.083853   0.042917
   13  F  2  Y    0.203845   0.104129
   14  F  2  Z   -0.026116  -0.088412
   15  F  2  S   -1.367952  -2.359325
   16  F  2  X   -0.249198  -0.287297
   17  F  2  Y   -0.618361  -0.669951
   18  F  2  Z    0.020781   0.598778
   19  F  3  S    0.053072  -0.019055
   20  F  3  S   -1.308088   1.134579
   21  F  3  X   -0.150493   0.035011
   22  F  3  Y   -0.060298   0.043570
   23  F  3  Z   -0.231107   0.134888
   24  F  3  S    2.257739  -2.459167
   25  F  3  X    0.498988  -0.288109
   26  F  3  Y    0.191949  -0.235721
   27  F  3  Z    0.688690  -0.896954
   28  O  4  S   -0.001641   0.018473
   29  O  4  S   -0.289947   0.581078
   30  O  4  X    0.028624  -0.008936
   31  O  4  Y    0.011297  -0.005830
   32  O  4  Z    0.101207   0.011541
   33  O  4  S    0.648189  -1.950180
   34  O  4  X   -0.094114   0.875510
   35  O  4  Y   -0.100983   0.028168
   36  O  4  Z   -0.742201   0.060719
   37  C  5  S    0.005414  -0.153924
   38  C  5  S    0.019311  -0.503254
   39  C  5  X   -0.052208  -0.112510
   40  C  5  Y    0.043049   0.031120
   41  C  5  Z    0.298312   0.013215
   42  C  5  S   -0.190309   5.151558
   43  C  5  X   -0.173480  -0.194874
   44  C  5  Y    0.221819   0.044233
   45  C  5  Z    1.746089  -0.087014
   46  H  6  S   -0.301791   0.185279
   47  H  6  S   -0.069672  -0.158984
 ...... END OF RHF CALCULATION ......
 STEP CPU TIME =     4.07 TOTAL CPU TIME =          4.1 (      0.1 MIN)
 TOTAL WALL CLOCK TIME=          4.3 SECONDS, CPU UTILIZATION IS    96.50%

     ---------------------------------------------------------------------
     PROPERTIES FOR THE B3LYP    DFT FUNCTIONAL (RHF  TYPE) DENSITY MATRIX
     ---------------------------------------------------------------------

          -----------------
          ENERGY COMPONENTS
          -----------------

         WAVEFUNCTION NORMALIZATION =       1.0000000000

                ONE ELECTRON ENERGY =    -969.5722555585
                TWO ELECTRON ENERGY =     356.6617267149
           NUCLEAR REPULSION ENERGY =     199.7260539766
                                      ------------------
                       TOTAL ENERGY =    -413.1844748670

 ELECTRON-ELECTRON POTENTIAL ENERGY =     356.6617267149
  NUCLEUS-ELECTRON POTENTIAL ENERGY =   -1380.9321498179
   NUCLEUS-NUCLEUS POTENTIAL ENERGY =     199.7260539766
                                      ------------------
             TOTAL POTENTIAL ENERGY =    -824.5443691264
               TOTAL KINETIC ENERGY =     411.3598942595
                 VIRIAL RATIO (V/T) =       2.0044354849

          ---------------------------------------
          MULLIKEN AND LOWDIN POPULATION ANALYSES
          ---------------------------------------

     ATOMIC MULLIKEN POPULATION IN EACH MOLECULAR ORBITAL

                      1          2          3          4          5

                  2.000000   2.000000   2.000000   2.000000   2.000000

    1             0.000011   1.998574   0.000041  -0.000007  -0.000506
    2            -0.000002   0.000037   1.998671  -0.000005  -0.000446
    3             1.998655   0.000014  -0.000000  -0.000006  -0.000470
    4            -0.000023  -0.000030  -0.000022   1.997570  -0.000310
    5             0.001360   0.001406   0.001312   0.002148   2.001688
    6            -0.000001  -0.000001  -0.000000   0.000301   0.000043

                      6          7          8          9         10

                  2.000000   2.000000   2.000000   2.000000   2.000000

    1             0.609247   0.985931   0.205050   0.056047   0.305467
    2             0.423260   0.006487   1.396593   0.039628   0.257285
    3             0.598969   0.910140   0.304819   0.064058   0.197903
    4             0.101387   0.003748   0.003383   1.573182   0.553536
    5             0.265177   0.093005   0.089886   0.165851   0.505040
    6             0.001960   0.000688   0.000269   0.101233   0.180769

                     11         12         13         14         15

                  2.000000   2.000000   2.000000   2.000000   2.000000

    1             0.175047   0.729823   0.306528   0.189648   0.532879
    2             0.162603   0.434899   0.515086   0.181935   0.431513
    3             0.588496   0.205767   0.477620   1.023929   0.938971
    4             0.443200   0.110506   0.166093   0.454993   0.068998
    5             0.498258   0.517389   0.522059   0.060064   0.026876
    6             0.132395   0.001616   0.012614   0.089432   0.000762

                     16         17         18         19         20

                  2.000000   2.000000   2.000000   2.000000   2.000000

    1             0.910568   1.145520   0.229017   0.617679   0.026752
    2             0.788523   0.256573   1.230279   0.855510   0.080471
    3             0.141158   0.344350   0.288991   0.507041   0.664050
    4             0.061685   0.163473   0.162450   0.015232   1.125004
    5             0.076471   0.089382   0.088458   0.004157   0.066812
    6             0.021595   0.000702   0.000805   0.000381   0.036911

                     21

                  2.000000

    1             0.225044
    2             0.198885
    3             0.022141
    4             1.528901
    5             0.024930
    6             0.000098

               ----- POPULATIONS IN EACH AO -----
                             MULLIKEN      LOWDIN
              1  F  1  S      1.99735     1.99462
              2  F  1  S      0.94026     0.94958
              3  F  1  X      1.17689     1.13904
              4  F  1  Y      0.95124     0.90849
              5  F  1  Z      1.16588     1.12740
              6  F  1  S      1.05740     0.86087
              7  F  1  X      0.68937     0.74801
              8  F  1  Y      0.57541     0.66277
              9  F  1  Z      0.69456     0.75096
             10  F  2  S      1.99735     1.99465
             11  F  2  S      0.94101     0.95133
             12  F  2  X      1.15458     1.11542
             13  F  2  Y      1.04943     1.00887
             14  F  2  Z      1.08084     1.04136
             15  F  2  S      1.05874     0.86874
             16  F  2  X      0.68533     0.74849
             17  F  2  Y      0.63868     0.70859
             18  F  2  Z      0.65182     0.71931
             19  F  3  S      1.99735     1.99463
             20  F  3  S      0.93889     0.95031
             21  F  3  X      1.15091     1.11304
             22  F  3  Y      1.18221     1.14461
             23  F  3  Z      0.95559     0.91427
             24  F  3  S      1.06029     0.86869
             25  F  3  X      0.69275     0.75232
             26  F  3  Y      0.70945     0.76204
             27  F  3  Z      0.58916     0.67124
             28  O  4  S      1.99722     1.99336
             29  O  4  S      0.90637     0.87579
             30  O  4  X      0.83922     0.79488
             31  O  4  Y      1.14325     1.11036
             32  O  4  Z      0.96377     0.90722
             33  O  4  S      0.98484     0.70613
             34  O  4  X      0.42301     0.55054
             35  O  4  Y      0.71586     0.75499
             36  O  4  Z      0.55943     0.64232
             37  C  5  S      1.99533     1.98261
             38  C  5  S      0.76361     0.55666
             39  C  5  X      0.66721     0.59676
             40  C  5  Y      0.60457     0.53300
             41  C  5  Z      0.58571     0.51805
             42  C  5  S      0.07505     0.34823
             43  C  5  X      0.13696     0.33355
             44  C  5  Y      0.13983     0.33357
             45  C  5  Z      0.13347     0.32272
             46  H  6  S      0.48399     0.44892
             47  H  6  S      0.09858     0.22068

          ----- MULLIKEN ATOMIC OVERLAP POPULATIONS -----
          (OFF-DIAGONAL ELEMENTS NEED TO BE MULTIPLIED BY 2)

             1           2           3           4           5

    1    9.1755765
    2   -0.0450931   9.1728449
    3   -0.0419072  -0.0444835   9.2056118
    4   -0.0710775  -0.0589694  -0.0592709   8.2841700
    5    0.2289348   0.2320679   0.2139793   0.1943333   4.2467318
    6    0.0019278   0.0014183   0.0026658   0.2437713  -0.0143176

             6

    6    0.3471063

          TOTAL MULLIKEN AND LOWDIN ATOMIC POPULATIONS
       ATOM         MULL.POP.    CHARGE          LOW.POP.     CHARGE
    1 F             9.248361   -0.248361         9.141731   -0.141731
    2 F             9.257785   -0.257785         9.156753   -0.156753
    3 F             9.276595   -0.276595         9.171166   -0.171166
    4 O             8.532957   -0.532957         8.335606   -0.335606
    5 C             5.101729    0.898271         5.525154    0.474846
    6 H             0.582572    0.417428         0.669591    0.330409

          -------------------------------
          BOND ORDER AND VALENCE ANALYSIS     BOND ORDER THRESHOLD=0.050
          -------------------------------

                   BOND                       BOND                       BOND
  ATOM PAIR DIST  ORDER      ATOM PAIR DIST  ORDER      ATOM PAIR DIST  ORDER
    1   5  1.367  1.003        2   5  1.394  0.993        3   5  1.394  0.961
    4   5  1.362  1.057        4   6  0.979  0.762

                       TOTAL       BONDED        FREE
      ATOM            VALENCE     VALENCE     VALENCE
    1 F                 1.037       1.037       0.000
    2 F                 1.032       1.032      -0.000
    3 F                 1.008       1.008       0.000
    4 O                 1.823       1.823      -0.000
    5 C                 4.032       4.032       0.000
    6 H                 0.803       0.803      -0.000

          ---------------------
          ELECTROSTATIC MOMENTS
          ---------------------

 POINT   1           X           Y           Z (BOHR)    CHARGE
                -0.086632   -0.013838   -0.024043        0.00 (A.U.)
         DX          DY          DZ         /D/  (DEBYE)
     1.689655   -0.354852   -1.918578    2.581045
 ...... END OF PROPERTY EVALUATION ......
 STEP CPU TIME =     0.00 TOTAL CPU TIME =          4.1 (      0.1 MIN)
 TOTAL WALL CLOCK TIME=          4.3 SECONDS, CPU UTILIZATION IS    96.28%

 BEGINNING ONE ELECTRON GRADIENT...
 ..... END OF 1-ELECTRON GRADIENT ......
 STEP CPU TIME =     0.01 TOTAL CPU TIME =          4.2 (      0.1 MIN)
 TOTAL WALL CLOCK TIME=          4.3 SECONDS, CPU UTILIZATION IS    96.51%

          ----------------------
          GRADIENT OF THE ENERGY
          ----------------------
 MEMORY FOR GRID POINT CONTRIBUTIONS TO THE DFT GRADIENT=    236091 WORDS.
 STEP CPU TIME =     0.76 TOTAL CPU TIME =          4.9 (      0.1 MIN)
 TOTAL WALL CLOCK TIME=          5.1 SECONDS, CPU UTILIZATION IS    96.84%
 THE COARSE/FINE SCHWARZ SCREENINGS SKIPPED         2348/        1089 BLOCKS.
 THE NUMBER OF GRADIENT INTEGRAL BLOCKS COMPUTED WAS      8233
 ...... END OF 2-ELECTRON GRADIENT ......
 STEP CPU TIME =     0.06 TOTAL CPU TIME =          5.0 (      0.1 MIN)
 TOTAL WALL CLOCK TIME=          5.1 SECONDS, CPU UTILIZATION IS    96.69%
 THE VIB 0 GRADIENT RMS = 4.68362045E-03

 THE VIB 0 GEOMETRY GRADIENT IS

 UNITS ARE HARTREE/BOHR    E'X               E'Y               E'Z 
    1 F                0.010030794      -0.005335720      -0.004449166
    2 F               -0.005915974      -0.008279546       0.002444451
    3 F               -0.002032872      -0.001413470       0.002976950
    4 O               -0.002646405       0.006649544       0.002729736
    5 C                0.000623638       0.007202021      -0.002919393
    6 H               -0.000059182       0.001177170      -0.000782579
  $VIB   
          IVIB=   0 IATOM=   0 ICOORD=   0 E=     -413.1844748670
  1.003079428E-02-5.335720143E-03-4.449166101E-03-5.915974497E-03-8.279546210E-03
  2.444451439E-03-2.032871927E-03-1.413469525E-03 2.976950404E-03-2.646404654E-03
  6.649544202E-03 2.729735948E-03 6.236384679E-04 7.202021303E-03-2.919392742E-03
 -5.918167325E-05 1.177170372E-03-7.825789481E-04
  1.689654502E+00-3.548516304E-01-1.918577507E+00
1   ATOM  1
                                        -------------------
   COORD  1                             NUCLEAR COORDINATES
                                        -------------------
     VIB  1

                       ATOM             X              Y              Z

                 1  F               -0.797480       2.322095       0.735859
                 2  F               -0.978122      -1.816216       1.630078
                 3  F               -0.984547      -0.541784      -2.379354
                 4  O                2.597050      -0.002268      -0.004913
                 5  C                0.023244      -0.009638      -0.004724
                 6  H                3.333666      -0.353190      -1.664471
 ...... END OF ONE-ELECTRON INTEGRALS ......
 STEP CPU TIME =     0.00 TOTAL CPU TIME =          5.0 (      0.1 MIN)
 TOTAL WALL CLOCK TIME=          5.1 SECONDS, CPU UTILIZATION IS    96.69%
 TOTAL NUMBER OF NONZERO TWO-ELECTRON INTEGRALS =              560831
         38 INTEGRAL RECORDS WERE STORED ON DISK FILE  8.
  ...... END OF TWO-ELECTRON INTEGRALS .....
 STEP CPU TIME =     0.03 TOTAL CPU TIME =          5.0 (      0.1 MIN)
 TOTAL WALL CLOCK TIME=          5.2 SECONDS, CPU UTILIZATION IS    96.71%

          --------------------------
             R-B3LYP SCF CALCULATION
          --------------------------
         DENSITY MATRIX CONVERGENCE THRESHOLD=  1.00E-05
     COARSE -> FINE DFT GRID SWITCH THRESHOLD=  3.00E-04 (SWITCH IN $DFT)
                   HF -> DFT SWITCH THRESHOLD=  5.00E-03 (SWOFF IN $DFT)

 DFT CODE IS SWITCHING FROM THE FINE GRID NRAD= 96,  NLEB=  302
                      TO THE COARSE GRID NRAD0= 24, NLEB0=  110

 ITER EX DEM     TOTAL ENERGY        E CHANGE  DENSITY CHANGE    DIIS ERROR
          * * *   INITIATING DIIS PROCEDURE   * * *
   1  0  0     -413.1770307968  -413.1770307968   0.002790666   0.001903897
   2  1  0     -413.1770497873    -0.0000189905   0.001634822   0.001185066
   3  2  0     -413.1770536410    -0.0000038536   0.000499866   0.000671909
   4  3  0     -413.1770557248    -0.0000020839   0.000077950   0.000094956
 DFT CODE IS SWITCHING BACK TO THE FINE GRID
          * * *   INITIATING DIIS PROCEDURE   * * *
   5  4  0     -413.1843487349    -0.0072930101   0.002541001   0.001981151
   6  5  0     -413.1843635561    -0.0000148212   0.001523312   0.001164267
   7  6  0     -413.1843673008    -0.0000037446   0.000520394   0.000633296
   8  7  0     -413.1843690354    -0.0000017347   0.000081376   0.000083641
   9  8  0     -413.1843690602    -0.0000000248   0.000022777   0.000021215
  10  9  0     -413.1843690613    -0.0000000011   0.000008581   0.000012849
  11 10  0     -413.1843690618    -0.0000000005   0.000000346   0.000000260

          -----------------
          DENSITY CONVERGED
          -----------------
     TIME TO FORM FOCK OPERATORS=       3.8 SECONDS (       0.3 SEC/ITER)
     TIME TO SOLVE SCF EQUATIONS=       0.0 SECONDS (       0.0 SEC/ITER)

 FINAL R-B3LYP ENERGY IS     -413.1843690618 AFTER  11 ITERATIONS
 DFT EXCHANGE + CORRELATION ENERGY =       -36.8247559964
 TOTAL ELECTRON NUMBER             =        41.9999658519
 ...... END OF RHF CALCULATION ......
 STEP CPU TIME =     3.84 TOTAL CPU TIME =          8.8 (      0.1 MIN)
 TOTAL WALL CLOCK TIME=          9.0 SECONDS, CPU UTILIZATION IS    98.00%
 ..... END OF 1-ELECTRON GRADIENT ......
 STEP CPU TIME =     0.01 TOTAL CPU TIME =          8.9 (      0.1 MIN)
 TOTAL WALL CLOCK TIME=          9.0 SECONDS, CPU UTILIZATION IS    98.12%
 MEMORY FOR GRID POINT CONTRIBUTIONS TO THE DFT GRADIENT=    236091 WORDS.
 STEP CPU TIME =     0.76 TOTAL CPU TIME =          9.6 (      0.2 MIN)
 TOTAL WALL CLOCK TIME=          9.8 SECONDS, CPU UTILIZATION IS    98.16%
 ...... END OF 2-ELECTRON GRADIENT ......
 STEP CPU TIME =     0.06 TOTAL CPU TIME =          9.7 (      0.2 MIN)
 TOTAL WALL CLOCK TIME=          9.8 SECONDS, CPU UTILIZATION IS    98.17%

 UNITS ARE HARTREE/BOHR    E'X               E'Y               E'Z 
    1 F                0.011157742      -0.006342461      -0.004810063
    2 F               -0.005775107      -0.008356207       0.002455315
    3 F               -0.001893762      -0.001486041       0.002922239
    4 O               -0.003119837       0.007095849       0.002971919
    5 C               -0.000277796       0.007840628      -0.002717126
    6 H               -0.000091241       0.001248233      -0.000822285
  $VIB   
          IVIB=   1 IATOM=   1 ICOORD=   1 E=     -413.1843690618
  1.115774212E-02-6.342460659E-03-4.810062600E-03-5.775106547E-03-8.356207452E-03
  2.455315308E-03-1.893761814E-03-1.486041308E-03 2.922238570E-03-3.119836955E-03
  7.095849071E-03 2.971919476E-03-2.777961027E-04 7.840627708E-03-2.717126001E-03
 -9.124069857E-05 1.248232640E-03-8.222847527E-04
  1.678308266E+00-3.513535900E-01-1.916794132E+00
1   ATOM  1
                                        -------------------
   COORD  2                             NUCLEAR COORDINATES
                                        -------------------
     VIB  1

                       ATOM             X              Y              Z

                 1  F               -0.807480       2.332095       0.735859
                 2  F               -0.978122      -1.816216       1.630078
                 3  F               -0.984547      -0.541784      -2.379354
                 4  O                2.597050      -0.002268      -0.004913
                 5  C                0.023244      -0.009638      -0.004724
                 6  H                3.333666      -0.353190      -1.664471
 ...... END OF ONE-ELECTRON INTEGRALS ......
 STEP CPU TIME =     0.00 TOTAL CPU TIME =          9.7 (      0.2 MIN)
 TOTAL WALL CLOCK TIME=          9.8 SECONDS, CPU UTILIZATION IS    98.17%
 TOTAL NUMBER OF NONZERO TWO-ELECTRON INTEGRALS =              560440
         38 INTEGRAL RECORDS WERE STORED ON DISK FILE  8.
  ...... END OF TWO-ELECTRON INTEGRALS .....
 STEP CPU TIME =     0.04 TOTAL CPU TIME =          9.7 (      0.2 MIN)
 TOTAL WALL CLOCK TIME=          9.9 SECONDS, CPU UTILIZATION IS    98.18%

          --------------------------
             R-B3LYP SCF CALCULATION
          --------------------------
         DENSITY MATRIX CONVERGENCE THRESHOLD=  1.00E-05
     COARSE -> FINE DFT GRID SWITCH THRESHOLD=  3.00E-04 (SWITCH IN $DFT)
                   HF -> DFT SWITCH THRESHOLD=  5.00E-03 (SWOFF IN $DFT)

 DFT CODE IS SWITCHING FROM THE FINE GRID NRAD= 96,  NLEB=  302
                      TO THE COARSE GRID NRAD0= 24, NLEB0=  110

 ITER EX DEM     TOTAL ENERGY        E CHANGE  DENSITY CHANGE    DIIS ERROR
          * * *   INITIATING DIIS PROCEDURE   * * *
   1  0  0     -413.1774523827  -413.1774523827   0.004346475   0.002200577
   2  1  0     -413.1774831596    -0.0000307768   0.001698830   0.001101276
   3  2  0     -413.1774857560    -0.0000025964   0.000987724   0.000836157
   4  3  0     -413.1774894475    -0.0000036915   0.000079195   0.000064553
 DFT CODE IS SWITCHING BACK TO THE FINE GRID
          * * *   INITIATING DIIS PROCEDURE   * * *
   5  4  0     -413.1844925464    -0.0070030989   0.002586012   0.001924400
   6  5  0     -413.1845063734    -0.0000138271   0.001486365   0.001148497
   7  6  0     -413.1845100261    -0.0000036526   0.000457075   0.000620588
   8  7  0     -413.1845116666    -0.0000016406   0.000076905   0.000082305
   9  8  0     -413.1845116906    -0.0000000239   0.000021943   0.000019993
  10  9  0     -413.1845116914    -0.0000000009   0.000008381   0.000012569
  11 10  0     -413.1845116919    -0.0000000005   0.000000378   0.000000287

          -----------------
          DENSITY CONVERGED
          -----------------
     TIME TO FORM FOCK OPERATORS=       3.8 SECONDS (       0.3 SEC/ITER)
     TIME TO SOLVE SCF EQUATIONS=       0.0 SECONDS (       0.0 SEC/ITER)

 FINAL R-B3LYP ENERGY IS     -413.1845116919 AFTER  11 ITERATIONS
 DFT EXCHANGE + CORRELATION ENERGY =       -36.8219629322
 TOTAL ELECTRON NUMBER             =        41.9999667137
 ...... END OF RHF CALCULATION ......
 STEP CPU TIME =     3.82 TOTAL CPU TIME =         13.5 (      0.2 MIN)
 TOTAL WALL CLOCK TIME=         13.7 SECONDS, CPU UTILIZATION IS    98.62%
 ..... END OF 1-ELECTRON GRADIENT ......
 STEP CPU TIME =     0.01 TOTAL CPU TIME =         13.5 (      0.2 MIN)
 TOTAL WALL CLOCK TIME=         13.7 SECONDS, CPU UTILIZATION IS    98.62%
 MEMORY FOR GRID POINT CONTRIBUTIONS TO THE DFT GRADIENT=    236091 WORDS.
 STEP CPU TIME =     0.77 TOTAL CPU TIME =         14.3 (      0.2 MIN)
 TOTAL WALL CLOCK TIME=         14.5 SECONDS, CPU UTILIZATION IS    98.69%
 ...... END OF 2-ELECTRON GRADIENT ......
 STEP CPU TIME =     0.06 TOTAL CPU TIME =         14.4 (      0.2 MIN)
 TOTAL WALL CLOCK TIME=         14.6 SECONDS, CPU UTILIZATION IS    98.70%

 UNITS ARE HARTREE/BOHR    E'X               E'Y               E'Z 
    1 F                0.009046165      -0.002049696      -0.003570180
    2 F               -0.005904023      -0.008875032       0.002518763
    3 F               -0.002022852      -0.001615130       0.002670633
    4 O               -0.002307612       0.006601076       0.002581624
    5 C                0.001246983       0.004814488      -0.003461377
    6 H               -0.000058661       0.001124295      -0.000739463
  $VIB   
          IVIB=   1 IATOM=   1 ICOORD=   2 E=     -413.1845116919
  9.046165204E-03-2.049696259E-03-3.570179535E-03-5.904023166E-03-8.875031964E-03
  2.518762895E-03-2.022852328E-03-1.615130128E-03 2.670632569E-03-2.307611897E-03
  6.601075725E-03 2.581623610E-03 1.246982986E-03 4.814487754E-03-3.461376705E-03
 -5.866079958E-05 1.124294871E-03-7.394628344E-04
  1.693446749E+00-3.732022074E-01-1.921691025E+00
1   ATOM  1
                                        -------------------
   COORD  3                             NUCLEAR COORDINATES
                                        -------------------
     VIB  1

                       ATOM             X              Y              Z

                 1  F               -0.807480       2.322095       0.745859
                 2  F               -0.978122      -1.816216       1.630078
                 3  F               -0.984547      -0.541784      -2.379354
                 4  O                2.597050      -0.002268      -0.004913
                 5  C                0.023244      -0.009638      -0.004724
                 6  H                3.333666      -0.353190      -1.664471
 ...... END OF ONE-ELECTRON INTEGRALS ......
 STEP CPU TIME =     0.00 TOTAL CPU TIME =         14.4 (      0.2 MIN)
 TOTAL WALL CLOCK TIME=         14.6 SECONDS, CPU UTILIZATION IS    98.70%
 TOTAL NUMBER OF NONZERO TWO-ELECTRON INTEGRALS =              560526
         38 INTEGRAL RECORDS WERE STORED ON DISK FILE  8.
  ...... END OF TWO-ELECTRON INTEGRALS .....
 STEP CPU TIME =     0.04 TOTAL CPU TIME =         14.4 (      0.2 MIN)
 TOTAL WALL CLOCK TIME=         14.6 SECONDS, CPU UTILIZATION IS    98.77%

          --------------------------
             R-B3LYP SCF CALCULATION
          --------------------------
         DENSITY MATRIX CONVERGENCE THRESHOLD=  1.00E-05
[...]
   34  O  4  X   -0.069447   0.001223  -0.151750   0.000112  -0.223019
   35  O  4  Y    0.004872  -0.115032  -0.005945   0.010783  -0.051453
   36  O  4  Z    0.018890   0.025274  -0.025661  -0.002315  -0.249124
   37  C  5  S    0.004742   0.000097  -0.006094   0.000002  -0.018458
   38  C  5  S   -0.010248  -0.000246   0.016284   0.000015   0.054317
   39  C  5  X    0.025139  -0.000527   0.071178  -0.000080   0.139611
   40  C  5  Y   -0.015413   0.058188   0.008121  -0.006540  -0.002133
   41  C  5  Z   -0.069907  -0.013211   0.036511   0.001409  -0.002887
   42  C  5  S   -0.031529   0.000472  -0.029635  -0.000051  -0.020851
   43  C  5  X   -0.106749   0.000427  -0.126455   0.000351  -0.083914
   44  C  5  Y    0.027896  -0.150739  -0.031216   0.031146  -0.004683
   45  C  5  Z    0.123687   0.035012  -0.138723  -0.006742  -0.025872
   46  H  6  S   -0.072557   0.000368  -0.022349  -0.000009   0.103133
   47  H  6  S   -0.029994  -0.000013   0.000091  -0.000001   0.036679

                     21         22         23         24         25
                   -0.3722     0.0248     0.1016     0.1311     0.1348
                     A          A          A          A          A   
    1  F  1  S   -0.003575   0.019344  -0.024644   0.051149   0.055151
    2  F  1  S    0.002556  -0.042410   0.063238  -0.101750  -0.122747
    3  F  1  X    0.230111  -0.083281  -0.017288  -0.143869  -0.054844
    4  F  1  Y   -0.003374   0.096396  -0.114370   0.191852   0.320470
    5  F  1  Z   -0.053750  -0.020280  -0.147685   0.164347  -0.015521
    6  F  1  S    0.045650  -0.151143   0.163290  -0.475390  -0.455493
    7  F  1  X    0.162595  -0.068846  -0.007231  -0.177674  -0.076092
    8  F  1  Y   -0.017841   0.121966  -0.128901   0.261116   0.380621
    9  F  1  Z   -0.047445  -0.017476  -0.155815   0.191103  -0.004885
   10  F  2  S    0.003578   0.019327  -0.024654  -0.050728   0.055552
   11  F  2  S   -0.002559  -0.042375   0.063259   0.100820  -0.123548
   12  F  2  X   -0.230015  -0.085261  -0.015558   0.146653  -0.062649
   13  F  2  Y    0.023698  -0.094396   0.043747   0.101840  -0.298039
   14  F  2  Z    0.049271   0.020764  -0.181790  -0.227185   0.119333
   15  F  2  S   -0.045694  -0.151020   0.163391   0.471935  -0.459230
   16  F  2  X   -0.162804  -0.071353  -0.005228   0.181611  -0.085375
   17  F  2  Y    0.006541  -0.116836   0.053448   0.152865  -0.348429
   18  F  2  Z    0.049805   0.033896  -0.195143  -0.279670   0.154118
   19  F  3  S   -0.000003   0.000896  -0.079073  -0.000034  -0.009935
   20  F  3  S    0.000004  -0.016207   0.176027   0.000027   0.011746
   21  F  3  X    0.001012  -0.028763   0.160157  -0.001397   0.138659
   22  F  3  Y    0.077007   0.016162   0.083613  -0.182046  -0.007350
   23  F  3  Z   -0.016567   0.073538   0.396007   0.039054  -0.030536
   24  F  3  S    0.000028   0.046893   0.636694   0.000514   0.134518
   25  F  3  X    0.000800  -0.007863   0.192180  -0.001411   0.147843
   26  F  3  Y    0.062665   0.014115   0.101463  -0.186132   0.001218
   27  F  3  Z   -0.013471   0.065151   0.480581   0.040121   0.009536
   28  O  4  S    0.000004   0.083829  -0.019984  -0.000055  -0.011313
   29  O  4  S   -0.000009  -0.173410   0.054810   0.000067   0.013051
   30  O  4  X   -0.006260  -0.050425  -0.144650  -0.002307   0.027056
   31  O  4  Y   -0.583304   0.053943  -0.021400  -0.216497  -0.041292
   32  O  4  Z    0.126138   0.246805  -0.106571   0.045909  -0.194230
   33  O  4  S   -0.000025  -0.867938   0.204494   0.001292   0.279854
   34  O  4  X   -0.004374  -0.128063  -0.200354  -0.002982   0.012338
   35  O  4  Y   -0.407201   0.088486  -0.026217  -0.269764  -0.057340
   36  O  4  Z    0.088070   0.402678  -0.131689   0.057063  -0.270307
   37  C  5  S   -0.000001  -0.040104   0.141855  -0.000382  -0.101044
   38  C  5  S   -0.000001   0.091044  -0.352158   0.001189   0.305731
   39  C  5  X   -0.000178   0.109527   0.255012   0.006976  -0.332050
   40  C  5  Y   -0.016507   0.046862   0.103352   0.777738   0.117310
   41  C  5  Z    0.003577   0.222385   0.492293  -0.165447   0.542613
   42  C  5  S    0.000014   0.228416  -1.064230   0.002154   0.618427
   43  C  5  X   -0.000753  -0.028303   0.146080   0.007369  -0.355221
   44  C  5  Y   -0.069611   0.047226   0.101605   0.827102   0.128246
   45  C  5  Z    0.015045   0.217281   0.478436  -0.175877   0.593181
   46  H  6  S    0.000014   0.209579   0.070346   0.000212   0.040189
   47  H  6  S    0.000021   1.341330  -0.057945  -0.001791  -0.436740

                     26         27         28         29         30
                    0.2211     0.5031     0.5056     0.5125     0.5888
                     A          A          A          A          A   
    1  F  1  S    0.005971  -0.023172   0.008701  -0.023966   0.035942
    2  F  1  S   -0.017247   0.013411   0.004394   0.034019  -0.108748
    3  F  1  X   -0.155600  -0.016103  -0.019066  -0.179969  -0.037147
    4  F  1  Y   -0.011926   0.189713  -0.048538   0.052995  -0.105110
    5  F  1  Z   -0.025341  -0.026169  -0.157921   0.047584  -0.030122
    6  F  1  S   -0.038599   0.645884  -0.298627   0.522019  -0.470794
    7  F  1  X   -0.187007   0.120099  -0.099216  -0.125919  -0.156182
    8  F  1  Y   -0.012687  -0.091682   0.092534  -0.237653   0.244846
    9  F  1  Z   -0.031367  -0.140437  -0.161655  -0.030986   0.087928
   10  F  2  S    0.005953   0.023191   0.008717  -0.023946   0.035939
   11  F  2  S   -0.017212  -0.013478   0.004397   0.034027  -0.108753
   12  F  2  X   -0.155418   0.020299  -0.018743  -0.180824  -0.035107
   13  F  2  Y    0.003658   0.183357  -0.020270  -0.024821   0.084126
   14  F  2  Z   -0.028775  -0.054105  -0.164040   0.064312  -0.070900
   15  F  2  S   -0.038385  -0.646132  -0.299123   0.521425  -0.470748
   16  F  2  X   -0.186790  -0.121158  -0.101913  -0.121226  -0.160793
   17  F  2  Y    0.002549  -0.023287  -0.148830   0.206323  -0.183631
   18  F  2  Z   -0.034743   0.165361  -0.109525  -0.126463   0.180213
   19  F  3  S   -0.008358   0.000019  -0.032102  -0.016876   0.033636
   20  F  3  S    0.014467   0.000004   0.032687   0.041094  -0.087133
   21  F  3  X   -0.109025   0.001881  -0.039051  -0.166254  -0.006212
   22  F  3  Y    0.008970   0.166934  -0.041080   0.002899   0.024299
   23  F  3  Z    0.036342  -0.035856  -0.193082   0.004595   0.112713
   24  F  3  S    0.100285  -0.000522   0.807261   0.252264  -0.511127
   25  F  3  X   -0.126945   0.002129   0.109407  -0.159543  -0.173093
   26  F  3  Y    0.018624   0.194903   0.042755   0.041365  -0.054249
   27  F  3  Z    0.080310  -0.042212   0.203640   0.183695  -0.260539
   28  O  4  S    0.077496  -0.000020   0.015408   0.001722   0.023269
   29  O  4  S   -0.170862   0.000059  -0.049706   0.057090  -0.051605
   30  O  4  X    0.471953   0.002404  -0.149624  -0.126609  -0.080194
   31  O  4  Y   -0.028208   0.203229  -0.014079   0.001728  -0.048045
   32  O  4  Z   -0.106924  -0.043895  -0.073662   0.001377  -0.226104
   33  O  4  S   -0.873424   0.000474  -0.219544  -0.785659  -0.981455
   34  O  4  X    0.918077   0.002331   0.070774   0.213130   0.595353
   35  O  4  Y   -0.057226   0.229327  -0.049484   0.002831  -0.004995
   36  O  4  Z   -0.218931  -0.049312  -0.226569   0.023336   0.006517
   37  C  5  S   -0.093770  -0.000006   0.006775   0.003504  -0.021255
   38  C  5  S    0.276127  -0.000291   0.059149   0.383987  -1.618546
   39  C  5  X    0.680857   0.009468  -0.185265  -0.817174  -0.244307
   40  C  5  Y    0.005848   0.836452  -0.174944   0.051147   0.014375
   41  C  5  Z    0.060704  -0.179971  -0.822791   0.194579   0.054535
   42  C  5  S    1.077602   0.000468  -0.085020  -0.583913   3.437699
   43  C  5  X    1.111546  -0.021214   0.414274   2.050298   0.808265
   44  C  5  Y    0.019913  -1.868297   0.393439  -0.119743  -0.026918
   45  C  5  Z    0.146987   0.401955   1.850182  -0.448950  -0.084773
   46  H  6  S   -0.013253  -0.000165   0.156058  -0.001016  -0.212000
   47  H  6  S   -0.593535  -0.000032   0.037424  -0.228530  -0.275564

                     31
                    0.7891
                     A   
    1  F  1  S    0.006849
    2  F  1  S   -0.040943
    3  F  1  X   -0.030315
    4  F  1  Y   -0.038713
    5  F  1  Z    0.033071
    6  F  1  S   -0.040713
    7  F  1  X   -0.008639
    8  F  1  Y    0.039545
    9  F  1  Z   -0.001510
   10  F  2  S    0.006858
   11  F  2  S   -0.040982
   12  F  2  X   -0.029317
   13  F  2  Y    0.049536
   14  F  2  Z    0.014074
   15  F  2  S   -0.040808
   16  F  2  X   -0.009542
   17  F  2  Y   -0.036506
   18  F  2  Z    0.014901
   19  F  3  S    0.010236
   20  F  3  S   -0.058123
   21  F  3  X   -0.015136
   22  F  3  Y   -0.004508
   23  F  3  Z   -0.021729
   24  F  3  S   -0.090462
   25  F  3  X   -0.015398
   26  F  3  Y   -0.005852
   27  F  3  Z   -0.027934
   28  O  4  S    0.024341
   29  O  4  S   -0.165804
   30  O  4  X    0.205017
   31  O  4  Y    0.123149
   32  O  4  Z    0.579747
   33  O  4  S    0.112193
   34  O  4  X   -0.359938
   35  O  4  Y   -0.054044
   36  O  4  Z   -0.267956
   37  C  5  S   -0.021454
   38  C  5  S   -0.518993
   39  C  5  X   -0.086404
   40  C  5  Y    0.005693
   41  C  5  Z    0.022113
   42  C  5  S    0.695223
   43  C  5  X    0.172784
   44  C  5  Y   -0.032708
   45  C  5  Z   -0.142441
   46  H  6  S    1.067429
   47  H  6  S   -1.049389

     ---------------------------------------------------------------------
     PROPERTIES FOR THE B3LYP    DFT FUNCTIONAL (RHF  TYPE) DENSITY MATRIX
     ---------------------------------------------------------------------

          -----------------
          ENERGY COMPONENTS
          -----------------

         WAVEFUNCTION NORMALIZATION =       1.0000000000

                ONE ELECTRON ENERGY =    -969.4091024075
                TWO ELECTRON ENERGY =     356.5763888500
           NUCLEAR REPULSION ENERGY =     199.6473304301
                                      ------------------
                       TOTAL ENERGY =    -413.1853831274

 ELECTRON-ELECTRON POTENTIAL ENERGY =     356.5763888500
  NUCLEUS-ELECTRON POTENTIAL ENERGY =   -1380.7601070948
   NUCLEUS-NUCLEUS POTENTIAL ENERGY =     199.6473304301
                                      ------------------
             TOTAL POTENTIAL ENERGY =    -824.5363878147
               TOTAL KINETIC ENERGY =     411.3510046873
                 VIRIAL RATIO (V/T) =       2.0044593994

          ---------------------------------------
          MULLIKEN AND LOWDIN POPULATION ANALYSES
          ---------------------------------------

     ATOMIC MULLIKEN POPULATION IN EACH MOLECULAR ORBITAL

                      1          2          3          4          5

                  2.000000   2.000000   2.000000   2.000000   2.000000

    1             0.000005   0.446989   1.551666  -0.000006  -0.000478
    2             0.000005   1.551277   0.447378  -0.000006  -0.000478
    3             1.998667   0.000015  -0.000001  -0.000007  -0.000461
    4            -0.000024  -0.000038  -0.000012   1.997570  -0.000309
    5             0.001349   0.001759   0.000968   0.002146   2.001683
    6            -0.000001  -0.000001  -0.000000   0.000303   0.000043

                      6          7          8          9         10

                  2.000000   2.000000   2.000000   2.000000   2.000000

    1             0.526136   0.339188   0.952381   0.043274   0.282662
    2             0.526633   0.342575   0.948498   0.043259   0.282661
    3             0.580644   1.223545   0.002671   0.072844   0.198148
    4             0.100104   0.004381   0.003568   1.574736   0.549142
    5             0.264575   0.089030   0.092882   0.164572   0.507741
    6             0.001907   0.001281   0.000000   0.101315   0.179646

                     11         12         13         14         15

                  2.000000   2.000000   2.000000   2.000000   2.000000

    1             0.175094   0.590627   0.401696   0.186082   0.475680
    2             0.175397   0.593688   0.398747   0.186454   0.476082
    3             0.564065   0.186580   0.506939   1.013681   0.963312
    4             0.450254   0.107211   0.165795   0.463584   0.057466
    5             0.500948   0.521894   0.513357   0.060650   0.027459
    6             0.134242   0.000000   0.013466   0.089549   0.000000

                     16         17         18         19         20

                  2.000000   2.000000   2.000000   2.000000   2.000000

    1             0.857320   0.728370   0.687992   0.763794   0.036585
    2             0.857968   0.763026   0.652147   0.762979   0.036601
    3             0.123928   0.265781   0.419016   0.468137   0.667095
    4             0.061946   0.166688   0.143005   0.002312   1.151314
    5             0.076721   0.076135   0.096244   0.002777   0.071553
    6             0.022117   0.000000   0.001596   0.000000   0.036852

                     21

                  2.000000

    1             0.207695
    2             0.207846
    3             0.024514
    4             1.535339
    5             0.024606
    6             0.000000

               ----- POPULATIONS IN EACH AO -----
                             MULLIKEN      LOWDIN
              1  F  1  S      1.99735     1.99463
              2  F  1  S      0.94062     0.95036
              3  F  1  X      1.16431     1.12557
              4  F  1  Y      0.95931     0.91724
              5  F  1  Z      1.16607     1.12759
              6  F  1  S      1.05828     0.86442
              7  F  1  X      0.68683     0.74838
              8  F  1  Y      0.58399     0.66798
              9  F  1  Z      0.69600     0.75228
             10  F  2  S      1.99735     1.99463
             11  F  2  S      0.94062     0.95035
             12  F  2  X      1.16059     1.12178
             13  F  2  Y      1.05497     1.01457
             14  F  2  Z      1.07413     1.03404
             15  F  2  S      1.05827     0.86440
             16  F  2  X      0.68484     0.74689
             17  F  2  Y      0.63636     0.70638
             18  F  2  Z      0.64561     0.71539
             19  F  3  S      1.99735     1.99464
             20  F  3  S      0.93886     0.95045
             21  F  3  X      1.15641     1.11894
             22  F  3  Y      1.18297     1.14550
             23  F  3  Z      0.94853     0.90693
             24  F  3  S      1.06054     0.86981
             25  F  3  X      0.69605     0.75396
             26  F  3  Y      0.71122     0.76319
             27  F  3  Z      0.58719     0.67015
             28  O  4  S      1.99721     1.99336
             29  O  4  S      0.90608     0.87536
             30  O  4  X      0.84043     0.79636
             31  O  4  Y      1.14031     1.10707
             32  O  4  Z      0.96515     0.90855
             33  O  4  S      0.98561     0.70657
             34  O  4  X      0.42601     0.55259
             35  O  4  Y      0.71504     0.75503
             36  O  4  Z      0.55818     0.64115
             37  C  5  S      1.99533     1.98262
             38  C  5  S      0.76371     0.55690
             39  C  5  X      0.66662     0.59607
             40  C  5  Y      0.60239     0.53125
             41  C  5  Z      0.58697     0.51899
             42  C  5  S      0.07496     0.34851
             43  C  5  X      0.13679     0.33377
             44  C  5  Y      0.14289     0.33325
             45  C  5  Z      0.12939     0.32250
             46  H  6  S      0.48417     0.44911
             47  H  6  S      0.09815     0.22053

          ----- MULLIKEN ATOMIC OVERLAP POPULATIONS -----
          (OFF-DIAGONAL ELEMENTS NEED TO BE MULTIPLIED BY 2)

             1           2           3           4           5

    1    9.1724456
    2   -0.0481934   9.1724136
    3   -0.0418129  -0.0418261   9.2083318
    4   -0.0627283  -0.0627452  -0.0613405   8.2825801
    5    0.2314214   0.2314724   0.2125479   0.1939598   4.2444800
    6    0.0016194   0.0016167   0.0032145   0.2443036  -0.0148315

             6

    6    0.3463931

          TOTAL MULLIKEN AND LOWDIN ATOMIC POPULATIONS
       ATOM         MULL.POP.    CHARGE          LOW.POP.     CHARGE
    1 F             9.252752   -0.252752         9.148443   -0.148443
    2 F             9.252738   -0.252738         9.148442   -0.148442
    3 F             9.279115   -0.279115         9.173570   -0.173570
    4 O             8.534030   -0.534030         8.336038   -0.336038
    5 C             5.099050    0.900950         5.523871    0.476129
    6 H             0.582316    0.417684         0.669637    0.330363

          -------------------------------
          BOND ORDER AND VALENCE ANALYSIS     BOND ORDER THRESHOLD=0.050
          -------------------------------

                   BOND                       BOND                       BOND
  ATOM PAIR DIST  ORDER      ATOM PAIR DIST  ORDER      ATOM PAIR DIST  ORDER
    1   5  1.379  0.999        2   5  1.379  0.999        3   5  1.397  0.957
    4   5  1.364  1.056        4   6  0.978  0.761

                       TOTAL       BONDED        FREE
      ATOM            VALENCE     VALENCE     VALENCE
    1 F                 1.036       1.036      -0.000
    2 F                 1.036       1.036      -0.000
    3 F                 1.005       1.005       0.000
    4 O                 1.823       1.823      -0.000
    5 C                 4.029       4.029       0.000
    6 H                 0.803       0.803       0.000

          ---------------------
          ELECTROSTATIC MOMENTS
          ---------------------

 POINT   1           X           Y           Z (BOHR)    CHARGE
                -0.084671   -0.004154   -0.022024        0.00 (A.U.)
         DX          DY          DZ         /D/  (DEBYE)
     1.669275   -0.428028   -1.895382    2.561671
 ...... END OF PROPERTY EVALUATION ......
 STEP CPU TIME =     0.01 TOTAL CPU TIME =        189.5 (      3.2 MIN)
 TOTAL WALL CLOCK TIME=        190.6 SECONDS, CPU UTILIZATION IS    99.43%
  $VIB   
          IVIB=   0 IATOM=   0 ICOORD=   0 E=     -413.1853831274
 -6.970351502E-06 7.492205110E-06 3.405059302E-06 8.030591042E-06 1.461159753E-05
 -1.122569530E-05-9.846847193E-07 1.157469798E-06-1.193014953E-06-3.263605327E-06
  8.989205527E-07 1.340328309E-05-5.162575249E-06-2.006554462E-05 9.883295099E-06
  8.350625755E-06-4.094648372E-06-1.427292724E-05
  1.669274726E+00-4.280282113E-01-1.895382149E+00
 ......END OF GEOMETRY SEARCH......
 STEP CPU TIME =     0.00 TOTAL CPU TIME =        189.5 (      3.2 MIN)
 TOTAL WALL CLOCK TIME=        190.6 SECONDS, CPU UTILIZATION IS    99.43%
               580000  WORDS OF DYNAMIC MEMORY USED
 EXECUTION OF GAMESS TERMINATED NORMALLY Tue Mar 17 15:08:17 2020
 DDI: 263640 bytes (0.3 MB / 0 MWords) used by master data server.

 ----------------------------------------
 CPU timing information for all processes
 ========================================
 0: 188.462 + 1.22 = 189.485
 1: 0.01 + 0.02 = 0.03
 ----------------------------------------
 ddikick.x: exited gracefully.
unset echo
----- accounting info -----
Files used on the master node Vusals-MacBook-Pro.local were:
-rw-r--r--@ 1 wurthel  staff      554 Mar 17 15:05 .//TS.F05
-rw-r--r--  1 wurthel  staff  6840608 Mar 17 15:08 .//TS.F08
-rw-r--r--  1 wurthel  staff  1963200 Mar 17 15:08 .//TS.F10
-rw-r--r--  1 wurthel  staff  1796304 Mar 17 15:08 .//TS.F22
-rw-r--r--  1 wurthel  staff   143606 Mar 17 15:08 .//TS.dat
-rw-r--r--@ 1 wurthel  staff      554 Mar 17 15:05 .//TS.inp
-rw-r--r--@ 1 wurthel  staff   301581 Mar 17 15:08 .//TS.log
-rw-r--r--  1 wurthel  staff      613 Mar 17 14:59 .//TS.mol
-rw-r--r--  1 wurthel  staff    15167 Mar 17 15:08 .//TS.rst
mv: .//TS.mol and ./TS.mol are identical
ls: No match.
ls: No match.
ls: No match.
Tue Mar 17 15:08:20 MSK 2020
188.527u 1.086s 3:13.71 97.8%	0+0k 0+0io 669pf+0w
