----- GAMESS execution script 'rungms' -----
This job is running on host vusals-mbp
under operating system Darwin at Sun Feb 23 19:42:12 MSK 2020
Available scratch disk space (Kbyte units) at beginning of the job is
Filesystem   1024-blocks     Used Available Capacity iused               ifree %iused  Mounted on
/dev/disk1s5   118181844 41923540  71847304    37%  985510 9223372036853790297    0%   /
GAMESS temporary binary files will be written to ./
GAMESS supplementary output files will be written to ./
Copying input file input.inp to your run's scratch directory...
cp input.inp .//input.F05
unset echo
.//ddikick.x .//gamess.30Sep2018R3.x input -ddi 1 1 vusals-mbp -scr ./

 Distributed Data Interface kickoff program.
 Initiating 1 compute processes on 1 nodes to run the following command:
 .//gamess.30Sep2018R3.x input 

          ******************************************************
          *         GAMESS VERSION = 30 SEP 2018 (R3)         *
          *             FROM IOWA STATE UNIVERSITY             *
          * M.W.SCHMIDT, K.K.BALDRIDGE, J.A.BOATZ, S.T.ELBERT, *
          *   M.S.GORDON, J.H.JENSEN, S.KOSEKI, N.MATSUNAGA,   *
          *          K.A.NGUYEN, S.J.SU, T.L.WINDUS,           *
          *       TOGETHER WITH M.DUPUIS, J.A.MONTGOMERY       *
          *         J.COMPUT.CHEM.  14, 1347-1363(1993)        *
          **************** 64 BIT APPLE VERSION ****************

  SINCE 1993, STUDENTS AND POSTDOCS WORKING AT IOWA STATE UNIVERSITY
  AND ALSO IN THEIR VARIOUS JOBS AFTER LEAVING ISU HAVE MADE IMPORTANT
  CONTRIBUTIONS TO THE CODE:
     IVANA ADAMOVIC, CHRISTINE AIKENS, YURI ALEXEEV, POOJA ARORA,
     ANDREY ASADCHEV, ROB BELL, PRADIPTA BANDYOPADHYAY, JONATHAN BENTZ,
     BRETT BODE, KURT BRORSEN, CALEB CARLIN, GALINA CHABAN, WEI CHEN,
     CHEOL HO CHOI, PAUL DAY, ALBERT DEFUSCO, NUWAN DESILVA, TIM DUDLEY,
     DMITRI FEDOROV, ALEX FINDLATER, GRAHAM FLETCHER, MARK FREITAG,
     KURT GLAESEMANN, ANASTASIA GUNINA,
     DAN KEMP, GRANT MERRILL, NORIYUKI MINEZAWA, JONATHAN MULLIN,
     TAKESHI NAGATA, SEAN NEDD, HEATHER NETZLOFF, BOSILJKA NJEGIC, RYAN OLSON,
     MIKE PAK, BUU PHAM,
     SPENCER PRUITT, LUKE ROSKOP, JIM SHOEMAKER, LYUDMILA SLIPCHENKO,
     TONY SMITH, SAROM SOK LEANG, JIE SONG, TETSUYA TAKETSUGU, SIMON WEBB,
     PENG XU, SOOHAENG YOO, FEDERICO ZAHARIEV

  ADDITIONAL CODE HAS BEEN PROVIDED BY COLLABORATORS IN OTHER GROUPS:
     IOWA STATE UNIVERSITY:
          JOE IVANIC, AARON WEST, LAIMUTIS BYTAUTAS, KLAUS RUEDENBERG
     UNIVERSITY OF TOKYO: KIMIHIKO HIRAO, TAKAHITO NAKAJIMA,
          TAKAO TSUNEDA, MUNEAKI KAMIYA, SUSUMU YANAGISAWA,
          KIYOSHI YAGI, MAHITO CHIBA, SEIKEN TOKURA, NAOAKI KAWAKAMI
     UNIVERSITY OF AARHUS: FRANK JENSEN
     UNIVERSITY OF IOWA: VISVALDAS KAIRYS, HUI LI
     NATIONAL INST. OF STANDARDS AND TECHNOLOGY: WALT STEVENS, DAVID GARMER
     UNIVERSITY OF PISA: BENEDETTA MENNUCCI, JACOPO TOMASI
     UNIVERSITY OF MEMPHIS: HENRY KURTZ, PRAKASHAN KORAMBATH
     UNIVERSITY OF ALBERTA: TOBY ZENG, MARIUSZ KLOBUKOWSKI
     UNIVERSITY OF NEW ENGLAND: MARK SPACKMAN
     MIE UNIVERSITY: HIROAKI UMEDA
     NAT. INST. OF ADVANCED INDUSTRIAL SCIENCE AND TECHNOLOGY: KAZUO KITAURA
     MICHIGAN STATE UNIVERSITY:
          KAROL KOWALSKI, MARTA WLOCH, JEFFREY GOUR, JESSE LUTZ,
          WEI LI, JUN SHEN, J. EMILIANO DEUSTUA, PIOTR PIECUCH
     UNIVERSITY OF MINNESOTA:
          YINAN SHU
     UNIVERSITY OF SILESIA: MONIKA MUSIAL, STANISLAW KUCHARSKI
     FACULTES UNIVERSITAIRES NOTRE-DAME DE LA PAIX:
          OLIVIER QUINET, BENOIT CHAMPAGNE
     UNIVERSITY OF CALIFORNIA - SANTA BARBARA: BERNARD KIRTMAN
     INSTITUTE FOR MOLECULAR SCIENCE:
          KAZUYA ISHIMURA, MICHIO KATOUDA, AND SHIGERU NAGASE
     UNIVERSITY OF NOTRE DAME: ANNA POMOGAEVA, DAN CHIPMAN
     KYUSHU UNIVERSITY:
          HARUYUKI NAKANO,
          FENG LONG GU, JACEK KORCHOWIEC, MARCIN MAKOWSKI, AND YURIKO AOKI,
          HIROTOSHI MORI AND EISAKU MIYOSHI
     PENNSYLVANIA STATE UNIVERSITY:
          TZVETELIN IORDANOV, CHET SWALINA, JONATHAN SKONE,
          SHARON HAMMES-SCHIFFER
     WASEDA UNIVERSITY:
          MASATO KOBAYASHI, TOMOKO AKAMA, TSUGUKI TOUMA,
          TAKESHI YOSHIKAWA, YASUHIRO IKABATA, JUNJI SEINO,
          YUYA NAKAJIMA, HIROMI NAKAI
     NANJING UNIVERSITY: SHUHUA LI
     UNIVERSITY OF NEBRASKA:
          PEIFENG SU, DEJUN SI, NANDUN THELLAMUREGE, YALI WANG, HUI LI
     UNIVERSITY OF ZURICH: ROBERTO PEVERATI, KIM BALDRIDGE
     N. COPERNICUS UNIVERSITY AND JACKSON STATE UNIVERSITY:
          MARIA BARYSZ
     UNIVERSITY OF COPENHAGEN: Jimmy Kromann, CASPER STEINMANN
     TOKYO INSTITUTE OF TECHNOLOGY: HIROYA NAKATA
     NAGOYA UNIVERSITY: YOSHIO NISHIMOTO, STEPHAN IRLE
     MOSCOW STATE UNIVERSITY: VLADIMIR MIRONOV

 EXECUTION OF GAMESS BEGUN Sun Feb 23 19:42:12 2020

            ECHO OF THE FIRST FEW INPUT CARDS -
 INPUT CARD>!   File created by the GAMESS Input Deck Generator Plugin for Avogadro         
 INPUT CARD> $BASIS GBASIS=STO NGAUSS=3 $END                                                
 INPUT CARD> $CONTRL SCFTYP=RHF RUNTYP=ENERGY DFTTYP=B3LYP NPRINT=9 $END                    
 INPUT CARD>                                                                                
 INPUT CARD> $DATA                                                                          
 INPUT CARD>Title                                                                           
 INPUT CARD>C1                                                                              
 INPUT CARD>N     7.0     1.40902     1.54890     0.00000                                   
 INPUT CARD>N     7.0    -1.40904     1.54890     0.00000                                   
 INPUT CARD>C     6.0     0.70422     0.38727     0.00000                                   
 INPUT CARD>C     6.0    -0.70424     0.38727     0.00000                                   
 INPUT CARD>C     6.0     1.39273    -0.85103     0.00000                                   
 INPUT CARD>C     6.0    -1.39274    -0.85104     0.00000                                   
 INPUT CARD>C     6.0     0.69353    -2.06143     0.00000                                   
 INPUT CARD>C     6.0    -0.69354    -2.06143     0.00000                                   
 INPUT CARD>C     6.0     2.79506    -0.85129     0.00000                                   
 INPUT CARD>C     6.0    -2.79508    -0.85130     0.00000                                   
 INPUT CARD>C     6.0     3.49146     0.34812     0.00000                                   
 INPUT CARD>C     6.0    -3.49147     0.34810     0.00000                                   
 INPUT CARD>C     6.0     2.75776     1.51361     0.00000                                   
 INPUT CARD>C     6.0    -2.75779     1.51360     0.00000                                   
 INPUT CARD>H     1.0     1.22343    -3.01147     0.00000                                   
 INPUT CARD>H     1.0    -1.22344    -3.01148     0.00000                                   
 INPUT CARD>H     1.0     3.35196    -1.78516     0.00000                                   
 INPUT CARD>H     1.0    -3.35198    -1.78517     0.00000                                   
 INPUT CARD>H     1.0     4.57476     0.37206     0.00000                                   
 INPUT CARD>H     1.0    -4.57478     0.37204     0.00000                                   
 INPUT CARD>H     1.0     3.24268     2.48547     0.00000                                   
 INPUT CARD>H     1.0    -3.24271     2.48545     0.00000                                   
 INPUT CARD> $END                                                                           
    1000000 WORDS OF MEMORY AVAILABLE

     BASIS OPTIONS
     -------------
     GBASIS=STO          IGAUSS=       3      POLAR=NONE    
     NDFUNC=       0     NFFUNC=       0     DIFFSP=       F
     NPFUNC=       0      DIFFS=       F     BASNAM=        


     RUN TITLE
     ---------
 Title                                                                           

 THE POINT GROUP OF THE MOLECULE IS C1      
 THE ORDER OF THE PRINCIPAL AXIS IS     0

 ATOM      ATOMIC                      COORDINATES (BOHR)
           CHARGE         X                   Y                   Z
 N           7.0     2.6626617112        2.9269965824        0.0000000000
 N           7.0    -2.6626995057        2.9269965824        0.0000000000
 C           6.0     1.3307828351        0.7318341833        0.0000000000
 C           6.0    -1.3308206296        0.7318341833        0.0000000000
 C           6.0     2.6318780749       -1.6082135073        0.0000000000
 C           6.0    -2.6318969721       -1.6082324046        0.0000000000
 C           6.0     1.3105816643       -3.8955378429        0.0000000000
 C           6.0    -1.3106005615       -3.8955378429        0.0000000000
 C           6.0     5.2818975192       -1.6087048361        0.0000000000
 C           6.0    -5.2819353138       -1.6087237333        0.0000000000
 C           6.0     6.5979026971        0.6578514108        0.0000000000
 C           6.0    -6.5979215944        0.6578136163        0.0000000000
 C           6.0     5.2114107399        2.8603081523        0.0000000000
 C           6.0    -5.2114674317        2.8602892550        0.0000000000
 H           1.0     2.3119474652       -5.6908531202        0.0000000000
 H           1.0    -2.3119663624       -5.6908720175        0.0000000000
 H           1.0     6.3342859218       -3.3734632442        0.0000000000
 H           1.0    -6.3343237163       -3.3734821415        0.0000000000
 H           1.0     8.6450428596        0.7030914510        0.0000000000
 H           1.0    -8.6450806541        0.7030536565        0.0000000000
 H           1.0     6.1277766659        4.6968572507        0.0000000000
 H           1.0    -6.1278333576        4.6968194562        0.0000000000

          INTERNUCLEAR DISTANCES (ANGS.)
          ------------------------------

                1 N          2 N          3 C          4 C          5 C     

   1 N       0.0000000    2.8180600 *  1.3587227 *  2.4114834 *  2.3999853 *
   2 N       2.8180600 *  0.0000000    2.4114834 *  1.3587227 *  3.6891163  
   3 C       1.3587227 *  2.4114834 *  0.0000000    1.4084600 *  1.4168391 *
   4 C       2.4114834 *  1.3587227 *  1.4084600 *  0.0000000    2.4352967 *
   5 C       2.3999853 *  3.6891163    1.4168391 *  2.4352967 *  0.0000000  
   6 C       3.6891152    2.3999954 *  2.4352932 *  1.4168429 *  2.7854700 *
   7 C       3.6805446    4.1779520    2.4487233 *  2.8195554 *  1.3978372 *
   8 C       4.1779470    3.6805466    2.8195504 *  2.4487234 *  2.4119682 *
   9 C       2.7716455 *  4.8410091    2.4301528 *  3.7120252    1.4023300 *
  10 C       4.8410140    2.7716542 *  3.7120286    2.4301579 *  4.1878100  
  11 C       2.4038363 *  5.0454705    2.7875149 *  4.1958826    2.4171529 *
  12 C       5.0454656    2.4038376 *  4.1958728    2.7875052 *  5.0292467  
  13 C       1.3492016 *  4.1669494    2.3421504 *  3.6406161    2.7303533 *
  14 C       4.1669595    1.3492119 *  3.6406225    2.3421543 *  4.7768495  
  15 H       4.5641448    5.2656313    3.4381700    3.9073450    2.1670633 *
  16 H       5.2656349    4.5641552    3.9073488    3.4381783    3.3929176  
  17 H       3.8588822    5.8123211    3.4249057    4.6013270    2.1705255 *
  18 H       5.8123269    3.8588909    4.6013318    3.4249121    4.8357926  
  19 H       3.3774046    6.0984272    3.8705699    5.2790219    3.4089975  
  20 H       6.0984311    3.3774116    5.2790220    3.8705700    6.0915578  
  21 H       2.0589979 *  4.7450672    3.2933604    4.4699688    3.8150422  
  22 H       4.7450730    2.0589977 *  4.4699682    3.2933553    5.7113398  

                6 C          7 C          8 C          9 C         10 C     

   1 N       3.6891152    3.6805446    4.1779470    2.7716455 *  4.8410140  
   2 N       2.3999954 *  4.1779520    3.6805466    4.8410091    2.7716542 *
   3 C       2.4352932 *  2.4487233 *  2.8195504 *  2.4301528 *  3.7120286  
   4 C       1.4168429 *  2.8195554 *  2.4487234 *  3.7120252    2.4301579 *
   5 C       2.7854700 *  1.3978372 *  2.4119682 *  1.4023300 *  4.1878100  
   6 C       0.0000000    2.4119632 *  1.3978285 *  4.1878000    1.4023400 *
   7 C       2.4119632 *  0.0000000    1.3870700 *  2.4250499 *  3.6925349  
   8 C       1.3978285 *  1.3870700 *  0.0000000    3.6925288    2.4250536 *
   9 C       4.1878000    2.4250499 *  3.6925288    0.0000000    5.5901400  
  10 C       1.4023400 *  3.6925349    2.4250536 *  5.5901400    0.0000000  
  11 C       5.0292539    3.6924712    4.8290948    1.3869237 *  6.3999370  
  12 C       2.4171480 *  4.8290848    3.6924581    6.3999215    1.3869100 *
  13 C       4.7768420    4.1281905    4.9691431    2.3651941 *  6.0354645  
  14 C       2.7303633 *  4.9691498    4.1281918    6.0354658    2.3651940 *
  15 H       3.3929048    1.0878281 *  2.1394742 *  2.6714038 *  4.5623193  
  16 H       2.1670633 *  2.1394787 *  1.0878369 *  4.5623199    2.6714097 *
  17 H       4.8357790    2.6727467 *  4.0549224    1.0873136 *  6.2175715  
  18 H       2.1705346 *  4.0549317    2.6727557 *  6.2175745    1.0873136 *
  19 H       6.0915540    4.5810283    5.8031766    2.1596105 *  7.4706861  
  20 H       3.4090033    5.8031773    4.5810261    7.4706812    2.1596048 *
  21 H       5.7113411    5.2127215    6.0139943    3.3666498    6.8984476  
  22 H       3.8150432    6.0139923    5.2127138    6.8984419    3.3666412  

               11 C         12 C         13 C         14 C         15 H     

   1 N       2.4038363 *  5.0454656    1.3492016 *  4.1669595    4.5641448  
   2 N       5.0454705    2.4038376 *  4.1669494    1.3492119 *  5.2656313  
   3 C       2.7875149 *  4.1958728    2.3421504 *  3.6406225    3.4381700  
   4 C       4.1958826    2.7875052 *  3.6406161    2.3421543 *  3.9073450  
   5 C       2.4171529 *  5.0292467    2.7303533 *  4.7768495    2.1670633 *
   6 C       5.0292539    2.4171480 *  4.7768420    2.7303633 *  3.3929048  
   7 C       3.6924712    4.8290848    4.1281905    4.9691498    1.0878281 *
   8 C       4.8290948    3.6924581    4.9691431    4.1281918    2.1394742 *
   9 C       1.3869237 *  6.3999215    2.3651941 *  6.0354658    2.6714038 *
  10 C       6.3999370    1.3869100 *  6.0354645    2.3651940 *  4.5623193  
  11 C       0.0000000    6.9829300    1.3772010 *  6.3570016    4.0534929  
  12 C       6.9829300    0.0000000    6.3569874    1.3771988 *  5.7893862  
  13 C       1.3772010 *  6.3569874    0.0000000    5.5155500    4.7781291  
  14 C       6.3570016    1.3771988 *  5.5155500    0.0000000    6.0271362  
  15 H       4.0534929    5.7893862    4.7781291    6.0271362    0.0000000  
  16 H       5.7894036    4.0534847    6.0271380    4.7781355    2.4468700 *
  17 H       2.1378362 *  7.1682168    3.3518588    6.9434043    2.4565171 *
  18 H       7.1682353    2.1378256 *  6.9434050    3.3518570    4.7368965  
  19 H       1.0835645 *  8.0662656    2.1458391 *  7.4208762    4.7623196  
  20 H       8.0662755    1.0835745 *  7.4208709    2.1458359 *  6.7132242  
  21 H       2.1517798 *  7.0652054    1.0861212 *  6.0786653    5.8560840  
  22 H       7.0652123    2.1517775 *  6.0786605    1.0861123 *  7.0825515  

               16 H         17 H         18 H         19 H         20 H     

   1 N       5.2656349    3.8588822    5.8123269    3.3774046    6.0984311  
   2 N       4.5641552    5.8123211    3.8588909    6.0984272    3.3774116  
   3 C       3.9073488    3.4249057    4.6013318    3.8705699    5.2790220  
   4 C       3.4381783    4.6013270    3.4249121    5.2790219    3.8705700  
   5 C       3.3929176    2.1705255 *  4.8357926    3.4089975    6.0915578  
   6 C       2.1670633 *  4.8357790    2.1705346 *  6.0915540    3.4090033  
   7 C       2.1394787 *  2.6727467 *  4.0549317    4.5810283    5.8031773  
   8 C       1.0878369 *  4.0549224    2.6727557 *  5.8031766    4.5810261  
   9 C       4.5623199    1.0873136 *  6.2175745    2.1596105 *  7.4706812  
  10 C       2.6714097 *  6.2175715    1.0873136 *  7.4706861    2.1596048 *
  11 C       5.7894036    2.1378362 *  7.1682353    1.0835645 *  8.0662755  
  12 C       4.0534847    7.1682168    2.1378256 *  8.0662656    1.0835745 *
  13 C       6.0271380    3.3518588    6.9434050    2.1458391 *  7.4208709  
  14 C       4.7781355    6.9434043    3.3518570    7.4208762    2.1458359 *
  15 H       2.4468700 *  2.4565171 *  4.7368965    4.7623196    6.7132242  
  16 H       0.0000000    4.7368920    2.4565257 *  6.7132307    4.7623195  
  17 H       4.7368920    0.0000000    6.7039400    2.4796851 *  8.2150301  
  18 H       2.4565257 *  6.7039400    0.0000000    8.2150379    2.4796764 *
  19 H       6.7132307    2.4796851 *  8.2150379    0.0000000    9.1495400  
  20 H       4.7623195    8.2150301    2.4796764 *  9.1495400    0.0000000  
  21 H       7.0825622    4.2720279    7.8567109    2.4981871 *  8.0981027  
  22 H       5.8560815    7.8567030    4.2720177    8.0981019    2.4981818 *

               21 H         22 H     

   1 N       2.0589979 *  4.7450730  
   2 N       4.7450672    2.0589977 *
   3 C       3.2933604    4.4699682  
   4 C       4.4699688    3.2933553  
   5 C       3.8150422    5.7113398  
   6 C       5.7113411    3.8150432  
   7 C       5.2127215    6.0139923  
   8 C       6.0139943    5.2127138  
   9 C       3.3666498    6.8984419  
  10 C       6.8984476    3.3666412  
  11 C       2.1517798 *  7.0652123  
  12 C       7.0652054    2.1517775 *
  13 C       1.0861212 *  6.0786605  
  14 C       6.0786653    1.0861123 *
  15 H       5.8560840    7.0825515  
  16 H       7.0825622    5.8560815  
  17 H       4.2720279    7.8567030  
  18 H       7.8567109    4.2720177  
  19 H       2.4981871 *  8.0981019  
  20 H       8.0981027    2.4981818 *
  21 H       0.0000000    6.4853900  
  22 H       6.4853900    0.0000000  

  * ... LESS THAN  3.000


     ATOMIC BASIS SET
     ----------------
 THE CONTRACTED PRIMITIVE FUNCTIONS HAVE BEEN UNNORMALIZED
 THE CONTRACTED BASIS FUNCTIONS ARE NOW NORMALIZED TO UNITY

  SHELL TYPE  PRIMITIVE        EXPONENT          CONTRACTION COEFFICIENT(S)

 N         

      1   S       1            99.1061690    0.154328967295
      1   S       2            18.0523124    0.535328142282
      1   S       3             4.8856602    0.444634542185

      2   L       4             3.7804559   -0.099967229187    0.155916274999
      2   L       5             0.8784966    0.399512826089    0.607683718598
      2   L       6             0.2857144    0.700115468880    0.391957393099

 N         

      3   S       7            99.1061690    0.154328967295
      3   S       8            18.0523124    0.535328142282
      3   S       9             4.8856602    0.444634542185

      4   L      10             3.7804559   -0.099967229187    0.155916274999
      4   L      11             0.8784966    0.399512826089    0.607683718598
      4   L      12             0.2857144    0.700115468880    0.391957393099

 C         

      5   S      13            71.6168373    0.154328967295
      5   S      14            13.0450963    0.535328142282
      5   S      15             3.5305122    0.444634542185

      6   L      16             2.9412494   -0.099967229187    0.155916274999
      6   L      17             0.6834831    0.399512826089    0.607683718598
      6   L      18             0.2222899    0.700115468880    0.391957393099

 C         

      7   S      19            71.6168373    0.154328967295
      7   S      20            13.0450963    0.535328142282
      7   S      21             3.5305122    0.444634542185

      8   L      22             2.9412494   -0.099967229187    0.155916274999
      8   L      23             0.6834831    0.399512826089    0.607683718598
      8   L      24             0.2222899    0.700115468880    0.391957393099

 C         

      9   S      25            71.6168373    0.154328967295
      9   S      26            13.0450963    0.535328142282
      9   S      27             3.5305122    0.444634542185

     10   L      28             2.9412494   -0.099967229187    0.155916274999
     10   L      29             0.6834831    0.399512826089    0.607683718598
     10   L      30             0.2222899    0.700115468880    0.391957393099

 C         

     11   S      31            71.6168373    0.154328967295
     11   S      32            13.0450963    0.535328142282
     11   S      33             3.5305122    0.444634542185

     12   L      34             2.9412494   -0.099967229187    0.155916274999
     12   L      35             0.6834831    0.399512826089    0.607683718598
     12   L      36             0.2222899    0.700115468880    0.391957393099

 C         

     13   S      37            71.6168373    0.154328967295
     13   S      38            13.0450963    0.535328142282
     13   S      39             3.5305122    0.444634542185

     14   L      40             2.9412494   -0.099967229187    0.155916274999
     14   L      41             0.6834831    0.399512826089    0.607683718598
     14   L      42             0.2222899    0.700115468880    0.391957393099

 C         

     15   S      43            71.6168373    0.154328967295
     15   S      44            13.0450963    0.535328142282
     15   S      45             3.5305122    0.444634542185

     16   L      46             2.9412494   -0.099967229187    0.155916274999
     16   L      47             0.6834831    0.399512826089    0.607683718598
     16   L      48             0.2222899    0.700115468880    0.391957393099

 C         

     17   S      49            71.6168373    0.154328967295
     17   S      50            13.0450963    0.535328142282
     17   S      51             3.5305122    0.444634542185

     18   L      52             2.9412494   -0.099967229187    0.155916274999
     18   L      53             0.6834831    0.399512826089    0.607683718598
     18   L      54             0.2222899    0.700115468880    0.391957393099

 C         

     19   S      55            71.6168373    0.154328967295
     19   S      56            13.0450963    0.535328142282
     19   S      57             3.5305122    0.444634542185

     20   L      58             2.9412494   -0.099967229187    0.155916274999
     20   L      59             0.6834831    0.399512826089    0.607683718598
     20   L      60             0.2222899    0.700115468880    0.391957393099

 C         

     21   S      61            71.6168373    0.154328967295
     21   S      62            13.0450963    0.535328142282
     21   S      63             3.5305122    0.444634542185

     22   L      64             2.9412494   -0.099967229187    0.155916274999
     22   L      65             0.6834831    0.399512826089    0.607683718598
     22   L      66             0.2222899    0.700115468880    0.391957393099

 C         

     23   S      67            71.6168373    0.154328967295
     23   S      68            13.0450963    0.535328142282
     23   S      69             3.5305122    0.444634542185

     24   L      70             2.9412494   -0.099967229187    0.155916274999
     24   L      71             0.6834831    0.399512826089    0.607683718598
     24   L      72             0.2222899    0.700115468880    0.391957393099

 C         

     25   S      73            71.6168373    0.154328967295
     25   S      74            13.0450963    0.535328142282
     25   S      75             3.5305122    0.444634542185

     26   L      76             2.9412494   -0.099967229187    0.155916274999
     26   L      77             0.6834831    0.399512826089    0.607683718598
     26   L      78             0.2222899    0.700115468880    0.391957393099

 C         

     27   S      79            71.6168373    0.154328967295
     27   S      80            13.0450963    0.535328142282
     27   S      81             3.5305122    0.444634542185

     28   L      82             2.9412494   -0.099967229187    0.155916274999
     28   L      83             0.6834831    0.399512826089    0.607683718598
     28   L      84             0.2222899    0.700115468880    0.391957393099

 H         

     29   S      85             3.4252509    0.154328967295
     29   S      86             0.6239137    0.535328142282
     29   S      87             0.1688554    0.444634542185

 H         

     30   S      88             3.4252509    0.154328967295
     30   S      89             0.6239137    0.535328142282
     30   S      90             0.1688554    0.444634542185

 H         

     31   S      91             3.4252509    0.154328967295
     31   S      92             0.6239137    0.535328142282
     31   S      93             0.1688554    0.444634542185

 H         

     32   S      94             3.4252509    0.154328967295
     32   S      95             0.6239137    0.535328142282
     32   S      96             0.1688554    0.444634542185

 H         

     33   S      97             3.4252509    0.154328967295
     33   S      98             0.6239137    0.535328142282
     33   S      99             0.1688554    0.444634542185

 H         

     34   S     100             3.4252509    0.154328967295
     34   S     101             0.6239137    0.535328142282
     34   S     102             0.1688554    0.444634542185

 H         

     35   S     103             3.4252509    0.154328967295
     35   S     104             0.6239137    0.535328142282
     35   S     105             0.1688554    0.444634542185

 H         

     36   S     106             3.4252509    0.154328967295
     36   S     107             0.6239137    0.535328142282
     36   S     108             0.1688554    0.444634542185

 TOTAL NUMBER OF BASIS SET SHELLS             =   36
 NUMBER OF CARTESIAN GAUSSIAN BASIS FUNCTIONS =   78
 NUMBER OF ELECTRONS                          =   94
 CHARGE OF MOLECULE                           =    0
 SPIN MULTIPLICITY                            =    1
 NUMBER OF OCCUPIED ORBITALS (ALPHA)          =   47
 NUMBER OF OCCUPIED ORBITALS (BETA )          =   47
 TOTAL NUMBER OF ATOMS                        =   22
 THE NUCLEAR REPULSION ENERGY IS      789.0737321201

     LEBEDEV GRID-BASED DFT OPTIONS
     ------------------------------
     DFTTYP=B3LYP   
     NRAD  =      96     NLEB  =     302
     NRAD0 =      24     NLEB0 =     110
     SWOFF =    5.00E-03 (PURE SCF -> DFT)
     SWITCH=    3.00E-04 (COARSE -> TIGHT GRID)
     THRESH=    0.00E+00 GTHRE=    1.00E+00

 GRIMME'S EMPIRICAL DISPERSION CORRECTION= F

     $CONTRL OPTIONS
     ---------------
 SCFTYP=RHF          RUNTYP=ENERGY       EXETYP=RUN     
 MPLEVL=       0     CITYP =NONE         CCTYP =NONE         VBTYP =NONE    
 DFTTYP=B3LYP        TDDFT =NONE    
 MULT  =       1     ICHARG=       0     NZVAR =       0     COORD =UNIQUE  
 PP    =NONE         RELWFN=NONE         LOCAL =NONE         NUMGRD=       F
 ISPHER=      -1     NOSYM =       0     MAXIT =      30     UNITS =ANGS    
 PLTORB=       F     MOLPLT=       F     AIMPAC=       F     FRIEND=        
 NPRINT=       9     IREST =       0     GEOM  =INPUT   
 NORMF =       0     NORMP =       0     ITOL  =      20     ICUT  =       9
 INTTYP=BEST         GRDTYP=BEST         QMTTOL= 1.0E-06

     $SYSTEM OPTIONS
     ---------------
  REPLICATED MEMORY=     1000000 WORDS (ON EVERY NODE).
 DISTRIBUTED MEMDDI=           0 MILLION WORDS IN AGGREGATE,
 MEMDDI DISTRIBUTED OVER   1 PROCESSORS IS           0 WORDS/PROCESSOR.
 TOTAL MEMORY REQUESTED ON EACH PROCESSOR=     1000000 WORDS.
 TIMLIM=      525600.00 MINUTES, OR     365.0 DAYS.
 PARALL= F  BALTYP=  DLB     KDIAG=    0  COREFL= F
 MXSEQ2=     300 MXSEQ3=     150  mem10=         0

          ----------------
          PROPERTIES INPUT
          ----------------

     MOMENTS            FIELD           POTENTIAL          DENSITY
 IEMOM =       1   IEFLD =       0   IEPOT =       0   IEDEN =       0
 WHERE =COMASS     WHERE =NUCLEI     WHERE =NUCLEI     WHERE =NUCLEI  
 OUTPUT=BOTH       OUTPUT=BOTH       OUTPUT=BOTH       OUTPUT=BOTH    
 IEMINT=       0   IEFINT=       0                     IEDINT=       0
                                                       MORB  =       0
          EXTRAPOLATION IN EFFECT
          DIIS IN EFFECT
 ORBITAL PRINTING OPTION: NPREO=     1    78     2     1

     -------------------------------
     INTEGRAL TRANSFORMATION OPTIONS
     -------------------------------
     NWORD  =            0
     CUTOFF = 1.0E-09     MPTRAN =       0
     DIRTRF =       F     AOINTS =DUP     

          ----------------------
          INTEGRAL INPUT OPTIONS
          ----------------------
 NOPK  =       1 NORDER=       0 SCHWRZ=       T

     ------------------------------------------
     THE POINT GROUP IS C1 , NAXIS= 0, ORDER= 1
     ------------------------------------------

     DIMENSIONS OF THE SYMMETRY SUBSPACES ARE
 A   =   78

 ..... DONE SETTING UP THE RUN .....
 STEP CPU TIME =     0.02 TOTAL CPU TIME =          0.0 (      0.0 MIN)
 TOTAL WALL CLOCK TIME=          0.1 SECONDS, CPU UTILIZATION IS    33.33%

          ********************
          1 ELECTRON INTEGRALS
          ********************
 ...... END OF ONE-ELECTRON INTEGRALS ......
 STEP CPU TIME =     0.00 TOTAL CPU TIME =          0.0 (      0.0 MIN)
 TOTAL WALL CLOCK TIME=          0.1 SECONDS, CPU UTILIZATION IS    28.57%

          -------------
          GUESS OPTIONS
          -------------
          GUESS =HUCKEL            NORB  =       0          NORDER=       0
          MIX   =       F          PRTMO =       F          PUNMO =       F
          TOLZ  = 1.0E-08          TOLE  = 1.0E-05
          SYMDEN=       F          PURIFY=       F

 INITIAL GUESS ORBITALS GENERATED BY HUCKEL   ROUTINE.
 HUCKEL GUESS REQUIRES     82878 WORDS.

 SYMMETRIES FOR INITIAL GUESS ORBITALS FOLLOW.   BOTH SET(S).
    47 ORBITALS ARE OCCUPIED (   14 CORE ORBITALS).
    15=A       16=A       17=A       18=A       19=A       20=A       21=A   
    22=A       23=A       24=A       25=A       26=A       27=A       28=A   
    29=A       30=A       31=A       32=A       33=A       34=A       35=A   
    36=A       37=A       38=A       39=A       40=A       41=A       42=A   
    43=A       44=A       45=A       46=A       47=A       48=A       49=A   
    50=A       51=A       52=A       53=A       54=A       55=A       56=A   
    57=A   
 ...... END OF INITIAL ORBITAL SELECTION ......
 STEP CPU TIME =     0.02 TOTAL CPU TIME =          0.0 (      0.0 MIN)
 TOTAL WALL CLOCK TIME=          0.1 SECONDS, CPU UTILIZATION IS    44.44%

                    ----------------------
                    AO INTEGRAL TECHNOLOGY
                    ----------------------
     S,P,L SHELL ROTATED AXIS INTEGRALS, REPROGRAMMED BY
        KAZUYA ISHIMURA (IMS) AND JOSE SIERRA (SYNSTAR).
     S,P,D,L SHELL ROTATED AXIS INTEGRALS PROGRAMMED BY
        KAZUYA ISHIMURA (INSTITUTE FOR MOLECULAR SCIENCE).
     S,P,D,F,G SHELL TO TOTAL QUARTET ANGULAR MOMENTUM SUM 5,
        ERIC PROGRAM BY GRAHAM FLETCHER (ELORET AND NASA ADVANCED
        SUPERCOMPUTING DIVISION, AMES RESEARCH CENTER).
     S,P,D,F,G,L SHELL GENERAL RYS QUADRATURE PROGRAMMED BY
        MICHEL DUPUIS (PACIFIC NORTHWEST NATIONAL LABORATORY).

          --------------------
          2 ELECTRON INTEGRALS
          --------------------

 THE -PK- OPTION IS OFF, THE INTEGRALS ARE NOT IN SUPERMATRIX FORM.
 STORING   15000 INTEGRALS/RECORD ON DISK, USING 12 BYTES/INTEGRAL.
 TWO ELECTRON INTEGRAL EVALUATION REQUIRES   90022 WORDS OF MEMORY.
 SCHWARZ INEQUALITY OVERHEAD:      3002 INTEGRALS, T=        0.00
 II,JST,KST,LST =  1  1  1  1 NREC =         1 INTLOC =    1
 II,JST,KST,LST =  2  1  1  1 NREC =         1 INTLOC =    2
 II,JST,KST,LST =  3  1  1  1 NREC =         1 INTLOC =   34
 II,JST,KST,LST =  4  1  1  1 NREC =         1 INTLOC =   70
 II,JST,KST,LST =  5  1  1  1 NREC =         1 INTLOC =  479
 II,JST,KST,LST =  6  1  1  1 NREC =         1 INTLOC =  825
 II,JST,KST,LST =  7  1  1  1 NREC =         1 INTLOC = 3580
 II,JST,KST,LST =  8  1  1  1 NREC =         1 INTLOC = 4661
 II,JST,KST,LST =  9  1  1  1 NREC =         1 INTLOC =11421
 II,JST,KST,LST = 10  1  1  1 NREC =         1 INTLOC =13527
 II,JST,KST,LST = 11  1  1  1 NREC =         2 INTLOC =12475
 II,JST,KST,LST = 12  1  1  1 NREC =         3 INTLOC = 1271
 II,JST,KST,LST = 13  1  1  1 NREC =         4 INTLOC =10706
 II,JST,KST,LST = 14  1  1  1 NREC =         5 INTLOC = 1172
 II,JST,KST,LST = 15  1  1  1 NREC =         7 INTLOC = 9611
 II,JST,KST,LST = 16  1  1  1 NREC =         8 INTLOC = 3518
 II,JST,KST,LST = 17  1  1  1 NREC =        12 INTLOC = 1344
 II,JST,KST,LST = 18  1  1  1 NREC =        12 INTLOC =12394
 II,JST,KST,LST = 19  1  1  1 NREC =        18 INTLOC =  648
 II,JST,KST,LST = 20  1  1  1 NREC =        18 INTLOC =13908
 II,JST,KST,LST = 21  1  1  1 NREC =        25 INTLOC = 8488
 II,JST,KST,LST = 22  1  1  1 NREC =        26 INTLOC = 7611
 II,JST,KST,LST = 23  1  1  1 NREC =        34 INTLOC = 5368
 II,JST,KST,LST = 24  1  1  1 NREC =        35 INTLOC = 6529
 II,JST,KST,LST = 25  1  1  1 NREC =        44 INTLOC = 5819
 II,JST,KST,LST = 26  1  1  1 NREC =        45 INTLOC =14710
 II,JST,KST,LST = 27  1  1  1 NREC =        58 INTLOC = 5282
 II,JST,KST,LST = 28  1  1  1 NREC =        60 INTLOC = 2446
 II,JST,KST,LST = 29  1  1  1 NREC =        74 INTLOC =11622
 II,JST,KST,LST = 30  1  1  1 NREC =        79 INTLOC =10228
 II,JST,KST,LST = 31  1  1  1 NREC =        84 INTLOC =12778
 II,JST,KST,LST = 32  1  1  1 NREC =        89 INTLOC = 9833
 II,JST,KST,LST = 33  1  1  1 NREC =        94 INTLOC = 9579
 II,JST,KST,LST = 34  1  1  1 NREC =        98 INTLOC =13242
 II,JST,KST,LST = 35  1  1  1 NREC =       103 INTLOC = 3261
 II,JST,KST,LST = 36  1  1  1 NREC =       108 INTLOC = 4586
 SCHWARZ INEQUALITY TEST SKIPPED      114961 INTEGRAL BLOCKS.
 TOTAL NUMBER OF NONZERO TWO-ELECTRON INTEGRALS =             1688470
        113 INTEGRAL RECORDS WERE STORED ON DISK FILE  8.
  ...... END OF TWO-ELECTRON INTEGRALS .....
 STEP CPU TIME =     0.31 TOTAL CPU TIME =          0.3 (      0.0 MIN)
 TOTAL WALL CLOCK TIME=          0.4 SECONDS, CPU UTILIZATION IS    85.37%

          --------------------------
             R-B3LYP SCF CALCULATION
          --------------------------

     NUCLEAR ENERGY =       789.0737321201
     MAXIT =   30     NPUNCH=    2
     EXTRAP=T  DAMP=F  SHIFT=F  RSTRCT=F  DIIS=T  DEM=F  SOSCF=F
         DENSITY MATRIX CONVERGENCE THRESHOLD=  1.00E-05
     COARSE -> FINE DFT GRID SWITCH THRESHOLD=  3.00E-04 (SWITCH IN $DFT)
                   HF -> DFT SWITCH THRESHOLD=  5.00E-03 (SWOFF IN $DFT)
     MEMORY REQUIRED FOR RHF ITERS=    788635 WORDS.

 DFT CODE IS SWITCHING FROM THE FINE GRID NRAD= 96,  NLEB=  302
                      TO THE COARSE GRID NRAD0= 24, NLEB0=  110

     EXCHANGE FUNCTIONAL   =B88&HFX   
     CORRELATION FUNCTIONAL=LYP88&VWN5
     DFT THRESHOLD         =.627E-08
     GRID CHANGE THRESHOLD =.300E-03
 FOR AN EULER-MACLAURIN QUADRATURE USING  96 RADIAL POINTS:
 SMALLEST GAUSSIAN PRIMITIVE EXPONENT=        0.1688554040 OF TYPE -S-
 ON ATOM NUMBER  15 HAS RADIAL NORMALIZATION=  1.000000
  LARGEST GAUSSIAN PRIMITIVE EXPONENT=       99.1061689555 OF TYPE -S-
 ON ATOM NUMBER   1 HAS RADIAL NORMALIZATION=  1.000000
 DFT IS SWITCHED OFF, PERFORMING PURE SCF UNTIL SWOFF THRESHOLD IS REACHED.

 ITER EX DEM     TOTAL ENERGY        E CHANGE  DENSITY CHANGE    DIIS ERROR
   1  0  0     -560.3690876796  -560.3690876796   0.405796581   0.533351360
          * * *   INITIATING DIIS PROCEDURE   * * *
   2  1  0     -560.9285175141    -0.5594298344   0.190799095   0.061620682
   3  2  0     -560.9547778116    -0.0262602975   0.065751664   0.035458673
   4  3  0     -560.9616935030    -0.0069156914   0.035220150   0.009312373
   5  4  0     -560.9625796130    -0.0008861100   0.006490059   0.002005316
   6  5  0     -560.9626186971    -0.0000390841   0.001956098   0.000928499
 CONVERGED TO SWOFF, SO DFT CALCULATION IS NOW SWITCHED ON.
          * * *   INITIATING DIIS PROCEDURE   * * *
   7  6  0     -564.1125162605    -3.1498975634   0.043616830   0.080379314
   8  7  0     -564.1233700257    -0.0108537651   0.070649785   0.011721098
   9  8  0     -564.1215965047     0.0017735209   0.046639963   0.023708628
  10  9  0     -564.1246148450    -0.0030183403   0.004527130   0.003772391
  11 10  0     -564.1246651973    -0.0000503523   0.001647558   0.000967477
  12 11  0     -564.1246712070    -0.0000060097   0.000185736   0.000116800
 DFT CODE IS SWITCHING BACK TO THE FINE GRID
          * * *   INITIATING DIIS PROCEDURE   * * *
  13 12  0     -564.1179722685     0.0066989385   0.000677280   0.000351093
  14 13  0     -564.1179733982    -0.0000011297   0.000565121   0.000296858
  15 14  0     -564.1179733531     0.0000000451   0.000299584   0.000306686
  16 15  0     -564.1179736451    -0.0000002921   0.000041052   0.000029055
  17 16  0     -564.1179736486    -0.0000000035   0.000016859   0.000014531
  18 17  0     -564.1179736494    -0.0000000008   0.000004278   0.000002880
  19 18  0     -564.1179736495    -0.0000000000   0.000001486   0.000001398

          -----------------
          DENSITY CONVERGED
          -----------------
     TIME TO FORM FOCK OPERATORS=      29.0 SECONDS (       1.5 SEC/ITER)
     TIME TO SOLVE SCF EQUATIONS=       0.1 SECONDS (       0.0 SEC/ITER)

 FINAL R-B3LYP ENERGY IS     -564.1179736495 AFTER  19 ITERATIONS
 DFT EXCHANGE + CORRELATION ENERGY =       -65.8570136177
 TOTAL ELECTRON NUMBER             =        93.9999565751

          ------------
          EIGENVECTORS
          ------------

                      1          2          3          4          5
                  -14.1262   -14.1262   -10.0574   -10.0566   -10.0422
                     A          A          A          A          A   
    1  N  1  S   -0.700995   0.702650   0.000518   0.000509   0.000664
    2  N  1  S   -0.025365   0.025244  -0.005959  -0.005423  -0.007632
    3  N  1  X   -0.002205   0.002402   0.002072   0.001925  -0.004695
    4  N  1  Y    0.004124  -0.004091   0.003118   0.002855   0.000141
    5  N  1  Z   -0.000000   0.000000  -0.000000  -0.000000  -0.000000
    6  N  2  S    0.702626   0.701019  -0.000517   0.000510  -0.000271
    7  N  2  S    0.025423   0.025185   0.005952  -0.005431   0.003130
    8  N  2  X   -0.002211  -0.002396   0.002070  -0.001928  -0.001937
    9  N  2  Y   -0.004134  -0.004082  -0.003115   0.002859  -0.000059
   10  N  2  Z   -0.000000   0.000000  -0.000000  -0.000000  -0.000000
   11  C  3  S   -0.000458   0.000451   0.700266   0.700363   0.005404
   12  C  3  S    0.006089  -0.005754   0.038002   0.024616   0.000204
   13  C  3  X    0.002723  -0.002837  -0.004571   0.004254  -0.000526
   14  C  3  Y    0.004179  -0.003646  -0.000300  -0.000543  -0.000064
   15  C  3  Z   -0.000000   0.000000  -0.000000  -0.000000  -0.000000
   16  C  4  S    0.000459   0.000449  -0.699363   0.701264  -0.001695
   17  C  4  S   -0.006103  -0.005740  -0.037970   0.024665  -0.000228
   18  C  4  X    0.002729   0.002830  -0.004576  -0.004248  -0.000338
   19  C  4  Y   -0.004188  -0.003637   0.000299  -0.000543   0.000016
   20  C  4  Z   -0.000000   0.000000  -0.000000  -0.000000  -0.000000
   21  C  5  S    0.000020  -0.000012  -0.010657  -0.012064  -0.005037
   22  C  5  S   -0.000393   0.000383  -0.007308  -0.006889  -0.000324
   23  C  5  X   -0.000107   0.000206   0.002152   0.002086  -0.000169
   24  C  5  Y   -0.000323   0.000351  -0.003925  -0.003818  -0.000283
   25  C  5  Z   -0.000000   0.000000  -0.000000  -0.000000  -0.000000
   26  C  6  S   -0.000020  -0.000012   0.010642  -0.012079   0.002009
   27  C  6  S    0.000394   0.000382   0.007299  -0.006898   0.000125
   28  C  6  X   -0.000107  -0.000206   0.002150  -0.002089  -0.000068
   29  C  6  Y    0.000324   0.000350   0.003920  -0.003823   0.000111
   30  C  6  Z   -0.000000   0.000000  -0.000000  -0.000000  -0.000000
   31  C  7  S   -0.000001   0.000006   0.000367  -0.000649  -0.000119
   32  C  7  S    0.000007   0.000010   0.000468   0.000235  -0.000057
   33  C  7  X   -0.000032   0.000059  -0.000085   0.000092  -0.000014
   34  C  7  Y    0.000003  -0.000057   0.000285   0.000038  -0.000040
   35  C  7  Z   -0.000000   0.000000  -0.000000  -0.000000  -0.000000
   36  C  8  S    0.000001   0.000006  -0.000368  -0.000648   0.000047
   37  C  8  S   -0.000007   0.000010  -0.000468   0.000235   0.000024
   38  C  8  X   -0.000032  -0.000058  -0.000086  -0.000092  -0.000005
   39  C  8  Y   -0.000004  -0.000057  -0.000285   0.000038   0.000018
   40  C  8  Z   -0.000000   0.000000  -0.000000  -0.000000  -0.000000
   41  C  9  S   -0.000007   0.000009  -0.000233  -0.000568  -0.001861
   42  C  9  S    0.000163  -0.000192   0.000400   0.000265   0.000408
   43  C  9  X   -0.000014   0.000034  -0.000172  -0.000083   0.000136
   44  C  9  Y    0.000081  -0.000085   0.000044  -0.000024   0.000045
   45  C  9  Z   -0.000000   0.000000  -0.000000  -0.000000  -0.000000
   46  C 10  S    0.000007   0.000009   0.000232  -0.000568   0.000759
   47  C 10  S   -0.000163  -0.000191  -0.000400   0.000266  -0.000167
   48  C 10  X   -0.000014  -0.000034  -0.000172   0.000083   0.000056
   49  C 10  Y   -0.000081  -0.000084  -0.000044  -0.000024  -0.000019
   50  C 10  Z   -0.000000   0.000000  -0.000000  -0.000000  -0.000000
   51  C 11  S    0.000018  -0.000018  -0.000516  -0.000614  -0.012091
   52  C 11  S   -0.000376   0.000380  -0.000023   0.000006  -0.009529
   53  C 11  X    0.000433  -0.000438   0.000125   0.000146   0.003291
   54  C 11  Y    0.000049  -0.000050   0.000064   0.000072  -0.004860
   55  C 11  Z   -0.000000   0.000000  -0.000000  -0.000000  -0.000000
   56  C 12  S   -0.000018  -0.000018   0.000515  -0.000615   0.004964
   57  C 12  S    0.000377   0.000379   0.000023   0.000006   0.003915
   58  C 12  X    0.000434   0.000437   0.000125  -0.000146   0.001352
   59  C 12  Y   -0.000049  -0.000050  -0.000064   0.000072   0.001997
   60  C 12  Z   -0.000000   0.000000  -0.000000  -0.000000  -0.000000
   61  C 13  S   -0.000448   0.000452  -0.003798  -0.004735   0.916244
   62  C 13  S    0.005978  -0.006033  -0.000261  -0.000419   0.040388
   63  C 13  X   -0.004797   0.004843   0.000166   0.000249  -0.000127
   64  C 13  Y   -0.000265   0.000271   0.000224   0.000325  -0.001162
   65  C 13  Z   -0.000000   0.000000  -0.000000  -0.000000  -0.000000
   66  C 14  S    0.000449   0.000451   0.003792  -0.004740  -0.376408
   67  C 14  S   -0.005992  -0.006019   0.000260  -0.000419  -0.016595
   68  C 14  X   -0.004809  -0.004831   0.000165  -0.000249  -0.000055
   69  C 14  Y    0.000265   0.000270  -0.000224   0.000326   0.000479
   70  C 14  Z   -0.000000   0.000000  -0.000000  -0.000000  -0.000000
   71  H 15  S    0.000003  -0.000028  -0.000018  -0.000090   0.000003
   72  H 16  S   -0.000003  -0.000028   0.000018  -0.000090  -0.000002
   73  H 17  S    0.000003  -0.000003  -0.000066  -0.000078  -0.000134
   74  H 18  S   -0.000003  -0.000003   0.000066  -0.000078   0.000055
   75  H 19  S   -0.000017   0.000017  -0.000045  -0.000057   0.000255
   76  H 20  S    0.000017   0.000017   0.000045  -0.000057  -0.000105
   77  H 21  S   -0.000102   0.000102  -0.000072  -0.000083  -0.008499
   78  H 22  S    0.000102   0.000101   0.000072  -0.000083   0.003491

                      6          7          8          9         10
                  -10.0422   -10.0339   -10.0338   -10.0251   -10.0251
                     A          A          A          A          A   
    1  N  1  S    0.000276  -0.000016   0.000004   0.000010   0.000013
    2  N  1  S   -0.003143   0.000278   0.000148  -0.000009  -0.000033
    3  N  1  X   -0.001917   0.000016   0.000129  -0.000030  -0.000020
    4  N  1  Y    0.000057  -0.000165  -0.000130   0.000054   0.000068
    5  N  1  Z    0.000000   0.000000   0.000000   0.000000   0.000000
    6  N  2  S    0.000666   0.000016   0.000004  -0.000010   0.000013
    7  N  2  S   -0.007637  -0.000277   0.000150   0.000008  -0.000033
    8  N  2  X    0.004687   0.000016  -0.000129  -0.000029   0.000020
    9  N  2  Y    0.000141   0.000165  -0.000130  -0.000053   0.000069
   10  N  2  Z    0.000000   0.000000   0.000000   0.000000   0.000000
   11  C  3  S    0.002959   0.011684   0.013081   0.000698   0.001102
   12  C  3  S   -0.000118  -0.006289  -0.005915   0.000041  -0.000077
   13  C  3  X   -0.000045  -0.002172  -0.002164  -0.000131  -0.000022
   14  C  3  Y   -0.000040   0.003857   0.003790   0.000026   0.000107
   15  C  3  Z    0.000000   0.000000   0.000000   0.000000   0.000000
   16  C  4  S    0.005923  -0.011628   0.013132  -0.000674   0.001118
   17  C  4  S    0.000062   0.006263  -0.005942  -0.000043  -0.000077
   18  C  4  X    0.000405  -0.002163   0.002174  -0.000131   0.000025
   19  C  4  Y   -0.000073  -0.003840   0.003806  -0.000024   0.000108
   20  C  4  Z    0.000000   0.000000   0.000000   0.000000   0.000000
   21  C  5  S   -0.002155   0.700917   0.697853   0.029117   0.029172
   22  C  5  S   -0.000144   0.032837   0.032489  -0.005402  -0.005237
   23  C  5  X   -0.000071   0.000085   0.000470  -0.004519  -0.004369
   24  C  5  Y   -0.000124  -0.000250  -0.000258  -0.000093  -0.000104
   25  C  5  Z    0.000000   0.000000   0.000000   0.000000   0.000000
   26  C  6  S   -0.005097  -0.697890   0.700880  -0.028465   0.029813
   27  C  6  S   -0.000331  -0.032696   0.032630   0.005285  -0.005355
   28  C  6  X    0.000170   0.000083  -0.000471  -0.004421   0.004468
   29  C  6  Y   -0.000289   0.000249  -0.000260   0.000091  -0.000106
   30  C  6  Z    0.000000   0.000000   0.000000   0.000000   0.000000
   31  C  7  S   -0.000051  -0.015366  -0.016558  -0.002843  -0.004663
   32  C  7  S   -0.000022  -0.007909  -0.007087  -0.000131  -0.000276
   33  C  7  X   -0.000007  -0.002029  -0.002372  -0.000107  -0.000051
   34  C  7  Y   -0.000015  -0.003962  -0.003871  -0.000076  -0.000154
   35  C  7  Z    0.000000   0.000000   0.000000   0.000000   0.000000
   36  C  8  S   -0.000121   0.015294  -0.016624   0.002739  -0.004725
   37  C  8  S   -0.000056   0.007878  -0.007121   0.000125  -0.000279
   38  C  8  X    0.000015  -0.002019   0.002380  -0.000106   0.000053
   39  C  8  Y   -0.000039   0.003946  -0.003888   0.000072  -0.000156
   40  C  8  Z    0.000000   0.000000   0.000000   0.000000   0.000000
   41  C  9  S   -0.000773  -0.028015  -0.028640   0.705998   0.690473
   42  C  9  S    0.000168  -0.007983  -0.008080   0.032046   0.031315
   43  C  9  X    0.000055   0.004475   0.004530  -0.000099  -0.000078
   44  C  9  Y    0.000017  -0.000062  -0.000068   0.001308   0.001279
   45  C  9  Z    0.000000   0.000000   0.000000   0.000000   0.000000
   46  C 10  S   -0.001867   0.027893  -0.028763  -0.690512   0.705959
   47  C 10  S    0.000409   0.007947  -0.008114  -0.031343   0.032018
   48  C 10  X   -0.000136   0.004456  -0.004549  -0.000097   0.000080
   49  C 10  Y    0.000044   0.000062  -0.000068  -0.001279   0.001308
   50  C 10  Z    0.000000   0.000000   0.000000   0.000000   0.000000
   51  C 11  S   -0.004972  -0.000213  -0.000199  -0.046356  -0.045365
   52  C 11  S   -0.003914   0.000516   0.000524  -0.009034  -0.008837
   53  C 11  X    0.001353  -0.000188  -0.000194   0.002461   0.002407
   54  C 11  Y   -0.001996  -0.000204  -0.000207   0.003865   0.003780
   55  C 11  Z    0.000000   0.000000   0.000000   0.000000   0.000000
   56  C 12  S   -0.012095   0.000212  -0.000200   0.045339  -0.046382
   57  C 12  S   -0.009528  -0.000513   0.000526   0.008836  -0.009035
   58  C 12  X   -0.003292  -0.000187   0.000194   0.002407  -0.002461
   59  C 12  Y   -0.004860   0.000204  -0.000208  -0.003780   0.003865
   60  C 12  Z    0.000000   0.000000   0.000000   0.000000   0.000000
   61  C 13  S    0.376401   0.003764   0.003835   0.000956   0.000950
   62  C 13  S    0.016588  -0.000006  -0.000022   0.000704   0.000687
   63  C 13  X   -0.000049   0.000123   0.000137   0.000274   0.000269
   64  C 13  Y   -0.000475   0.000193   0.000196  -0.000270  -0.000264
   65  C 13  Z    0.000000   0.000000   0.000000   0.000000   0.000000
   66  C 14  S    0.916240  -0.003747   0.003851  -0.000935   0.000971
   67  C 14  S    0.040385   0.000006  -0.000022  -0.000688   0.000703
   68  C 14  X    0.000125   0.000123  -0.000137   0.000268  -0.000275
   69  C 14  Y   -0.001160  -0.000193   0.000197   0.000264  -0.000270
   70  C 14  Z    0.000000   0.000000   0.000000   0.000000   0.000000
   71  H 15  S    0.000001   0.000351   0.000208  -0.000022  -0.000025
   72  H 16  S    0.000003  -0.000350   0.000210   0.000021  -0.000026
   73  H 17  S   -0.000055   0.000389   0.000400  -0.006506  -0.006362
   74  H 18  S   -0.000134  -0.000388   0.000402   0.006363  -0.006505
   75  H 19  S    0.000105  -0.000064  -0.000064   0.000558   0.000546
   76  H 20  S    0.000255   0.000063  -0.000064  -0.000546   0.000558
   77  H 21  S   -0.003492  -0.000089  -0.000090  -0.000114  -0.000112
   78  H 22  S   -0.008500   0.000089  -0.000090   0.000111  -0.000114

                     11         12         13         14         15
                  -10.0203   -10.0203   -10.0190   -10.0184    -0.9110
                     A          A          A          A          A   
    1  N  1  S    0.000004  -0.000019  -0.000003   0.000014  -0.110168
    2  N  1  S   -0.000072   0.000354  -0.000001  -0.000099   0.346107
    3  N  1  X   -0.000027   0.000129   0.000017   0.000023   0.037835
    4  N  1  Y    0.000048  -0.000228  -0.000012   0.000074  -0.099758
    5  N  1  Z    0.000000   0.000000  -0.000000   0.000000  -0.000000
    6  N  2  S   -0.000019  -0.000003   0.000003   0.000014  -0.110159
    7  N  2  S    0.000355   0.000068   0.000001  -0.000099   0.346079
    8  N  2  X   -0.000129  -0.000023   0.000017  -0.000023  -0.037828
    9  N  2  Y   -0.000229  -0.000042   0.000012   0.000074  -0.099751
   10  N  2  Z    0.000000   0.000000  -0.000000   0.000000  -0.000000
   11  C  3  S   -0.000098   0.001031   0.000126   0.001032  -0.101368
   12  C  3  S   -0.000045  -0.000143  -0.000178   0.000048   0.240167
   13  C  3  X    0.000111  -0.000259   0.000128   0.000050   0.013918
   14  C  3  Y    0.000015  -0.000028   0.000138   0.000143   0.027918
   15  C  3  Z    0.000000   0.000000  -0.000000   0.000000  -0.000000
   16  C  4  S    0.000992   0.000298  -0.000126   0.001032  -0.101364
   17  C  4  S   -0.000116  -0.000096   0.000178   0.000048   0.240157
   18  C  4  X    0.000282  -0.000004   0.000128  -0.000050  -0.013912
   19  C  4  Y   -0.000032   0.000003  -0.000138   0.000143   0.027916
   20  C  4  Z    0.000000   0.000000  -0.000000   0.000000  -0.000000
   21  C  5  S   -0.000502   0.002727  -0.016426   0.017786  -0.053725
   22  C  5  S    0.000003  -0.000045   0.006312  -0.005754   0.128126
   23  C  5  X    0.000062  -0.000305  -0.002320   0.002254  -0.009402
   24  C  5  Y    0.000008  -0.000019  -0.003913   0.003764   0.030974
   25  C  5  Z    0.000000   0.000000  -0.000000   0.000000  -0.000000
   26  C  6  S    0.002715   0.000566   0.016429   0.017782  -0.053722
   27  C  6  S   -0.000043  -0.000014  -0.006314  -0.005753   0.128119
   28  C  6  X    0.000306   0.000058  -0.002320  -0.002253   0.009403
   29  C  6  Y   -0.000021   0.000000   0.003914   0.003763   0.030971
   30  C  6  Z    0.000000   0.000000  -0.000000   0.000000  -0.000000
   31  C  7  S    0.002003  -0.006929  -0.699668   0.700741  -0.024550
   32  C  7  S    0.000159  -0.000403  -0.038339   0.024670   0.059472
   33  C  7  X   -0.000014  -0.000091   0.005171   0.003826  -0.001857
   34  C  7  Y    0.000010  -0.000055  -0.000981   0.000745   0.020183
   35  C  7  Z    0.000000   0.000000  -0.000000   0.000000  -0.000000
   36  C  8  S   -0.007171  -0.000762   0.699808   0.700602  -0.024549
   37  C  8  S   -0.000433  -0.000005   0.038344   0.024662   0.059471
   38  C  8  X    0.000079   0.000047   0.005170  -0.003827   0.001857
   39  C  8  Y   -0.000055  -0.000012   0.000982   0.000745   0.020183
   40  C  8  Z    0.000000   0.000000  -0.000000   0.000000  -0.000000
   41  C  9  S   -0.012714   0.064878  -0.002556   0.004353  -0.031710
   42  C  9  S    0.001307  -0.006660  -0.000213   0.000148   0.075646
   43  C  9  X    0.000599  -0.003052   0.000024   0.000106  -0.017232
   44  C  9  Y    0.001059  -0.005403   0.000050   0.000045   0.018851
   45  C  9  Z    0.000000   0.000000  -0.000000   0.000000  -0.000000
   46  C 10  S    0.064874   0.012735   0.002557   0.004353  -0.031708
   47  C 10  S   -0.006661  -0.001306   0.000213   0.000148   0.075641
   48  C 10  X    0.003052   0.000598   0.000024  -0.000106   0.017230
   49  C 10  Y   -0.005403  -0.001061  -0.000050   0.000045   0.018850
   50  C 10  Z    0.000000   0.000000  -0.000000   0.000000  -0.000000
   51  C 11  S   -0.190208   0.969785  -0.005345   0.004325  -0.034243
   52  C 11  S   -0.008540   0.043540  -0.000159   0.000075   0.081544
   53  C 11  X    0.000335  -0.001705  -0.000053   0.000067  -0.029169
   54  C 11  Y   -0.000082   0.000421  -0.000036   0.000060   0.009836
   55  C 11  Z    0.000000   0.000000  -0.000000   0.000000  -0.000000
   56  C 12  S    0.969783   0.190216   0.005345   0.004323  -0.034241
   57  C 12  S    0.043541   0.008540   0.000159   0.000075   0.081538
   58  C 12  X    0.001705   0.000334  -0.000053  -0.000067   0.029166
   59  C 12  Y    0.000420   0.000083   0.000036   0.000060   0.009835
   60  C 12  Z    0.000000   0.000000  -0.000000   0.000000  -0.000000
   61  C 13  S   -0.002795   0.014277  -0.000269   0.000264  -0.065284
   62  C 13  S    0.001803  -0.009189   0.000052  -0.000044   0.150165
   63  C 13  X    0.000628  -0.003203  -0.000003   0.000007  -0.053886
   64  C 13  Y   -0.001067   0.005441  -0.000058   0.000051  -0.021846
   65  C 13  Z    0.000000   0.000000  -0.000000   0.000000  -0.000000
   66  C 14  S    0.014276   0.002805   0.000269   0.000264  -0.065278
   67  C 14  S   -0.009189  -0.001802  -0.000052  -0.000044   0.150150
   68  C 14  X    0.003203   0.000628  -0.000003  -0.000007   0.053880
   69  C 14  Y    0.005441   0.001068   0.000058   0.000051  -0.021844
   70  C 14  Z    0.000000   0.000000  -0.000000   0.000000  -0.000000
   71  H 15  S   -0.000016   0.000040   0.006572  -0.006322   0.008488
   72  H 16  S    0.000043   0.000001  -0.006573  -0.006321   0.008488
   73  H 17  S    0.000082  -0.000421   0.000069  -0.000112   0.010707
   74  H 18  S   -0.000421  -0.000083  -0.000069  -0.000112   0.010706
   75  H 19  S    0.001748  -0.008913   0.000058  -0.000047   0.011085
   76  H 20  S   -0.008913  -0.001748  -0.000058  -0.000047   0.011084
   77  H 21  S   -0.000009   0.000046   0.000012  -0.000013   0.021472
   78  H 22  S    0.000046   0.000009  -0.000012  -0.000013   0.021470

                     16         17         18         19         20
                   -0.8867    -0.8115    -0.7668    -0.7643    -0.7158
                     A          A          A          A          A   
    1  N  1  S    0.118847   0.064377  -0.072620   0.031164   0.027931
    2  N  1  S   -0.376251  -0.209348   0.242722  -0.104902  -0.095294
    3  N  1  X   -0.066531  -0.050951   0.036401   0.063431   0.057346
    4  N  1  Y    0.099072   0.031355  -0.040111   0.047044   0.059461
    5  N  1  Z   -0.000000  -0.000000   0.000000  -0.000000  -0.000000
    6  N  2  S   -0.118854   0.064377   0.072631   0.031141  -0.027933
    7  N  2  S    0.376274  -0.209349  -0.242760  -0.104826   0.095302
    8  N  2  X   -0.066531   0.050949   0.036379  -0.063443   0.057336
    9  N  2  Y   -0.099080   0.031357   0.040128   0.047032  -0.059458
   10  N  2  Z   -0.000000  -0.000000   0.000000  -0.000000  -0.000000
   11  C  3  S    0.062496  -0.028175  -0.003141   0.081321   0.062750
   12  C  3  S   -0.143396   0.074552   0.003764  -0.211647  -0.169683
   13  C  3  X   -0.080504  -0.030215   0.003359   0.053881  -0.075800
   14  C  3  Y   -0.037089  -0.096040   0.081413  -0.027331   0.016577
   15  C  3  Z   -0.000000  -0.000000   0.000000  -0.000000  -0.000000
   16  C  4  S   -0.062504  -0.028174   0.003169   0.081322  -0.062742
   17  C  4  S    0.143416   0.074549  -0.003835  -0.211651   0.169662
   18  C  4  X   -0.080504   0.030217   0.003343  -0.053880  -0.075804
   19  C  4  Y    0.037091  -0.096039  -0.081423  -0.027303  -0.016576
   20  C  4  Z   -0.000000  -0.000000   0.000000  -0.000000  -0.000000
   21  C  5  S    0.042718  -0.100577   0.097665  -0.013418   0.087823
   22  C  5  S   -0.102752   0.251656  -0.251746   0.033980  -0.233289
   23  C  5  X   -0.010265  -0.035968  -0.053494   0.084730   0.031909
   24  C  5  Y   -0.029223  -0.040753   0.023974  -0.024077   0.001573
   25  C  5  Z   -0.000000  -0.000000   0.000000  -0.000000  -0.000000
   26  C  6  S   -0.042723  -0.100576  -0.097669  -0.013382  -0.087822
   27  C  6  S    0.102762   0.251653   0.251756   0.033888   0.233285
   28  C  6  X   -0.010264   0.035970  -0.053518  -0.084711   0.031911
   29  C  6  Y    0.029224  -0.040755  -0.023984  -0.024068  -0.001583
   30  C  6  Z   -0.000000  -0.000000   0.000000  -0.000000  -0.000000
   31  C  7  S    0.008626  -0.115663   0.041809   0.004458   0.045795
   32  C  7  S   -0.022063   0.290332  -0.108125  -0.009594  -0.122273
   33  C  7  X   -0.011036  -0.031502  -0.054752   0.017992  -0.057277
   34  C  7  Y   -0.011398   0.053681  -0.037708  -0.005752  -0.041566
   35  C  7  Z   -0.000000  -0.000000   0.000000  -0.000000  -0.000000
   36  C  8  S   -0.008628  -0.115663  -0.041810   0.004473  -0.045804
   37  C  8  S    0.022069   0.290333   0.108128  -0.009634   0.122295
   38  C  8  X   -0.011036   0.031502  -0.054757  -0.017972  -0.057273
   39  C  8  Y    0.011400   0.053682   0.037707  -0.005766   0.041566
   40  C  8  Z   -0.000000  -0.000000   0.000000  -0.000000  -0.000000
   41  C  9  S    0.038066  -0.039800   0.111210  -0.094759  -0.017527
   42  C  9  S   -0.091148   0.102933  -0.288774   0.244907   0.046723
   43  C  9  X    0.013727  -0.042999   0.033804   0.017997   0.090887
   44  C  9  Y   -0.025668  -0.011347  -0.023162   0.052546   0.062879
   45  C  9  Z   -0.000000  -0.000000   0.000000  -0.000000  -0.000000
   46  C 10  S   -0.038069  -0.039798  -0.111240  -0.094723   0.017529
   47  C 10  S    0.091155   0.102928   0.288852   0.244814  -0.046728
   48  C 10  X    0.013727   0.042997   0.033795  -0.018013   0.090886
   49  C 10  Y    0.025670  -0.011347   0.023181   0.052543  -0.062880
   50  C 10  Z   -0.000000  -0.000000   0.000000  -0.000000  -0.000000
   51  C 11  S    0.046726   0.006159   0.065330  -0.112547  -0.111424
   52  C 11  S   -0.112488  -0.015358  -0.167577   0.289457   0.295379
   53  C 11  X    0.037428   0.004632   0.026610  -0.046117  -0.020384
   54  C 11  Y   -0.014007  -0.032308   0.054147  -0.012549   0.032942
   55  C 11  Z   -0.000000  -0.000000   0.000000  -0.000000  -0.000000
   56  C 12  S   -0.046729   0.006159  -0.065368  -0.112530   0.111421
   57  C 12  S    0.112496  -0.015360   0.167673   0.289411  -0.295370
   58  C 12  X    0.037431  -0.004632   0.026626   0.046109  -0.020383
   59  C 12  Y    0.014007  -0.032309  -0.054153  -0.012532  -0.032937
   60  C 12  Z   -0.000000  -0.000000   0.000000  -0.000000  -0.000000
   61  C 13  S    0.083563   0.049597  -0.019870  -0.061826  -0.078454
   62  C 13  S   -0.195832  -0.123212   0.049661   0.161913   0.213248
   63  C 13  X    0.062512   0.042987  -0.071687   0.047443   0.066369
   64  C 13  Y    0.028770   0.002094   0.037769  -0.057988  -0.051136
   65  C 13  Z   -0.000000  -0.000000   0.000000  -0.000000  -0.000000
   66  C 14  S   -0.083567   0.049597   0.019850  -0.061835   0.078448
   67  C 14  S    0.195842  -0.123212  -0.049608   0.161935  -0.213230
   68  C 14  X    0.062514  -0.042986  -0.071701  -0.047421   0.066370
   69  C 14  Y   -0.028771   0.002094  -0.037788  -0.057978   0.051136
   70  C 14  Z   -0.000000  -0.000000   0.000000  -0.000000  -0.000000
   71  H 15  S   -0.003817   0.055465  -0.028698   0.002444  -0.032759
   72  H 16  S    0.003817   0.055464   0.028699   0.002434   0.032764
   73  H 17  S   -0.013556   0.022912  -0.066438   0.054875   0.009775
   74  H 18  S    0.013557   0.022911   0.066456   0.054854  -0.009776
   75  H 19  S   -0.016391  -0.002742  -0.037053   0.064472   0.080340
   76  H 20  S    0.016392  -0.002743   0.037073   0.064460  -0.080336
   77  H 21  S   -0.029558  -0.023320   0.012279   0.033080   0.054043
   78  H 22  S    0.029560  -0.023320  -0.012268   0.033086  -0.054040

                     21         22         23         24         25
                   -0.6994    -0.6250    -0.6059    -0.5853    -0.5596
                     A          A          A          A          A   
    1  N  1  S   -0.041275   0.052270  -0.015268   0.021715  -0.048880
    2  N  1  S    0.142613  -0.185256   0.055083  -0.079641   0.181647
    3  N  1  X    0.105580  -0.028849  -0.108902   0.144010   0.088803
    4  N  1  Y    0.026305   0.026567  -0.091809   0.063989   0.061291
    5  N  1  Z   -0.000000  -0.000000  -0.000000   0.000000   0.000000
    6  N  2  S   -0.041273   0.052271   0.015267   0.021715   0.048881
    7  N  2  S    0.142608  -0.185261  -0.055082  -0.079638  -0.181651
    8  N  2  X   -0.105583   0.028840  -0.108916  -0.143992   0.088809
    9  N  2  Y    0.026307   0.026575   0.091812   0.063974  -0.061291
   10  N  2  Z   -0.000000  -0.000000  -0.000000   0.000000   0.000000
   11  C  3  S    0.081830  -0.058910  -0.044518   0.022580   0.071601
   12  C  3  S   -0.224844   0.165344   0.125613  -0.066893  -0.213536
   13  C  3  X    0.056504  -0.140322   0.065022   0.063178  -0.090185
   14  C  3  Y    0.038507  -0.082167   0.060077  -0.186168   0.101112
   15  C  3  Z   -0.000000  -0.000000  -0.000000   0.000000   0.000000
   16  C  4  S    0.081834  -0.058906   0.044524   0.022572  -0.071604
   17  C  4  S   -0.224854   0.165332  -0.125630  -0.066870   0.213545
   18  C  4  X   -0.056500   0.140327   0.065006  -0.063189  -0.090172
   19  C  4  Y    0.038509  -0.082171  -0.060089  -0.186162  -0.101106
   20  C  4  Z   -0.000000  -0.000000  -0.000000   0.000000   0.000000
   21  C  5  S    0.029191   0.030638   0.041320  -0.082067   0.045383
   22  C  5  S   -0.078318  -0.086366  -0.116614   0.231975  -0.135203
   23  C  5  X   -0.051234  -0.148387   0.065945  -0.017900   0.118423
   24  C  5  Y   -0.109207   0.052852   0.141459   0.040658  -0.145172
   25  C  5  Z   -0.000000  -0.000000  -0.000000   0.000000   0.000000
   26  C  6  S    0.029197   0.030637  -0.041331  -0.082064  -0.045380
   27  C  6  S   -0.078333  -0.086363   0.116645   0.231967   0.135193
   28  C  6  X    0.051233   0.148385   0.065937   0.017897   0.118420
   29  C  6  Y   -0.109207   0.052845  -0.141459   0.040678   0.145170
   30  C  6  Z   -0.000000  -0.000000  -0.000000   0.000000   0.000000
   31  C  7  S   -0.118892  -0.004360   0.086513   0.054343  -0.015618
   32  C  7  S    0.319342   0.007949  -0.246956  -0.159040   0.044068
   33  C  7  X   -0.082486  -0.066878  -0.112681   0.082930   0.036137
   34  C  7  Y   -0.027329   0.017427  -0.031224   0.129856  -0.044184
   35  C  7  Z   -0.000000  -0.000000  -0.000000   0.000000   0.000000
   36  C  8  S   -0.118889  -0.004363  -0.086506   0.054352   0.015618
   37  C  8  S    0.319332   0.007956   0.246934  -0.159065  -0.044066
   38  C  8  X    0.082491   0.066875  -0.112696  -0.082919   0.036138
   39  C  8  Y   -0.027331   0.017428   0.031238   0.129853   0.044179
   40  C  8  Z   -0.000000  -0.000000  -0.000000   0.000000   0.000000
   41  C  9  S    0.061878   0.073502  -0.059367   0.031501  -0.081052
   42  C  9  S   -0.166974  -0.206265   0.169001  -0.091655   0.243122
   43  C  9  X    0.007593   0.073616   0.064585  -0.136517   0.048782
   44  C  9  Y   -0.022011   0.069683   0.050262  -0.017166  -0.111684
   45  C  9  Z   -0.000000  -0.000000  -0.000000   0.000000   0.000000
   46  C 10  S    0.061879   0.073504   0.059367   0.031498   0.081051
   47  C 10  S   -0.166975  -0.206271  -0.168998  -0.091645  -0.243116
   48  C 10  X   -0.007598  -0.073610   0.064605   0.136510   0.048778
   49  C 10  Y   -0.022008   0.069679  -0.050270  -0.017159   0.111683
   50  C 10  Z   -0.000000  -0.000000  -0.000000   0.000000   0.000000
   51  C 11  S    0.018064  -0.079183  -0.015160   0.050707   0.045212
   52  C 11  S   -0.046795   0.222556   0.040578  -0.147923  -0.130006
   53  C 11  X    0.004261   0.032041  -0.005293  -0.048696  -0.012188
   54  C 11  Y    0.070716   0.104266  -0.140019   0.098510  -0.119562
   55  C 11  Z   -0.000000  -0.000000  -0.000000   0.000000   0.000000
   56  C 12  S    0.018057  -0.079180   0.015169   0.050703  -0.045214
   57  C 12  S   -0.046775   0.222548  -0.040604  -0.147910   0.130012
   58  C 12  X   -0.004261  -0.032041  -0.005289   0.048693  -0.012190
   59  C 12  Y    0.070723   0.104275   0.140026   0.098500   0.119563
   60  C 12  Z   -0.000000  -0.000000  -0.000000   0.000000   0.000000
   61  C 13  S   -0.065412  -0.049850   0.089979  -0.063578   0.003944
   62  C 13  S    0.177703   0.144355  -0.263964   0.187714  -0.007852
   63  C 13  X   -0.049092   0.138270  -0.028872  -0.021626  -0.144950
   64  C 13  Y    0.024881  -0.044123  -0.050638   0.045901   0.089289
   65  C 13  Z   -0.000000  -0.000000  -0.000000   0.000000   0.000000
   66  C 14  S   -0.065418  -0.049857  -0.089984  -0.063568  -0.003943
   67  C 14  S    0.177721   0.144373   0.263978   0.187684   0.007849
   68  C 14  X    0.049085  -0.138269  -0.028865   0.021623  -0.144952
   69  C 14  Y    0.024879  -0.044120   0.050645   0.045892  -0.089293
   70  C 14  Z   -0.000000  -0.000000  -0.000000   0.000000   0.000000
   71  H 15  S    0.089172  -0.019988  -0.099129  -0.095894   0.052774
   72  H 16  S    0.089167  -0.019985   0.099118  -0.095905  -0.052770
   73  H 17  S   -0.039801  -0.082200   0.052258  -0.063660   0.159124
   74  H 18  S   -0.039802  -0.082201  -0.052259  -0.063657  -0.159120
   75  H 19  S   -0.012776   0.091964   0.011716  -0.077499  -0.058953
   76  H 20  S   -0.012769   0.091959  -0.011727  -0.077492   0.058955
   77  H 21  S    0.049905   0.057418  -0.113411   0.080302   0.000344
   78  H 22  S    0.049911   0.057426   0.113419   0.080290  -0.000346

                     26         27         28         29         30
                   -0.5120    -0.4970    -0.4716    -0.4510    -0.4497
                     A          A          A          A          A   
    1  N  1  S    0.034039   0.005475  -0.028470  -0.031340  -0.003486
    2  N  1  S   -0.134524  -0.021599   0.114710   0.128575   0.014619
    3  N  1  X    0.124855   0.005264   0.142419  -0.113445  -0.052723
    4  N  1  Y    0.083621  -0.105940   0.059139  -0.073305   0.037098
    5  N  1  Z   -0.000000   0.000000   0.000000   0.000000  -0.000000
    6  N  2  S   -0.034039   0.005477  -0.028469  -0.031334   0.003528
    7  N  2  S    0.134524  -0.021604   0.114709   0.128552  -0.014790
    8  N  2  X    0.124858  -0.005269  -0.142420   0.113379  -0.052870
    9  N  2  Y   -0.083623  -0.105937   0.059137  -0.073356  -0.036996
   10  N  2  Z   -0.000000   0.000000   0.000000   0.000000  -0.000000
   11  C  3  S    0.019958   0.018043   0.022341   0.035981  -0.038431
   12  C  3  S   -0.065437  -0.056065  -0.077842  -0.113231   0.130190
   13  C  3  X   -0.010133   0.222160   0.016586   0.132191   0.028979
   14  C  3  Y   -0.123938  -0.034804  -0.122532   0.142186  -0.047390
   15  C  3  Z   -0.000000   0.000000   0.000000   0.000000  -0.000000
   16  C  4  S   -0.019957   0.018044   0.022342   0.036031   0.038382
   17  C  4  S    0.065435  -0.056069  -0.077847  -0.113400  -0.130036
   18  C  4  X   -0.010133  -0.222159  -0.016585  -0.132154   0.029164
   19  C  4  Y    0.123941  -0.034808  -0.122530   0.142250   0.047207
   20  C  4  Z   -0.000000   0.000000   0.000000   0.000000  -0.000000
   21  C  5  S   -0.036299  -0.009254   0.013704  -0.043532  -0.024534
   22  C  5  S    0.110027   0.027369  -0.044484   0.138697   0.083051
   23  C  5  X    0.120735   0.003518  -0.184198  -0.033369  -0.068453
   24  C  5  Y    0.123915   0.134073   0.019719  -0.184134   0.047951
   25  C  5  Z   -0.000000   0.000000   0.000000   0.000000  -0.000000
   26  C  6  S    0.036301  -0.009256   0.013704  -0.043500   0.024591
   27  C  6  S   -0.110033   0.027374  -0.044487   0.138587  -0.083233
   28  C  6  X    0.120741  -0.003522   0.184196   0.033281  -0.068504
   29  C  6  Y   -0.123916   0.134075   0.019721  -0.184195  -0.047715
   30  C  6  Z   -0.000000   0.000000   0.000000   0.000000  -0.000000
   31  C  7  S    0.079353  -0.013625  -0.000929   0.002051   0.035393
   32  C  7  S   -0.245215   0.044664  -0.006685  -0.008095  -0.118705
   33  C  7  X   -0.103796  -0.098267  -0.151612   0.123177  -0.054377
   34  C  7  Y    0.041572  -0.046819   0.173641   0.235358   0.081020
   35  C  7  Z   -0.000000   0.000000   0.000000   0.000000  -0.000000
   36  C  8  S   -0.079355  -0.013624  -0.000929   0.002006  -0.035395
   37  C  8  S    0.245220   0.044660  -0.006683  -0.007944   0.118714
   38  C  8  X   -0.103785   0.098269   0.151612  -0.123246  -0.054225
   39  C  8  Y   -0.041568  -0.046817   0.173637   0.235253  -0.081338
   40  C  8  Z   -0.000000   0.000000   0.000000   0.000000  -0.000000
   41  C  9  S   -0.034607   0.034468  -0.012724   0.041522  -0.008798
   42  C  9  S    0.105700  -0.116532   0.043769  -0.133510   0.037890
   43  C  9  X   -0.145196  -0.064137   0.200902  -0.054701   0.070522
   44  C  9  Y    0.008417   0.200747   0.033661  -0.046842  -0.179613
   45  C  9  Z   -0.000000   0.000000   0.000000   0.000000  -0.000000
   46  C 10  S    0.034608   0.034469  -0.012723   0.041533   0.008743
   47  C 10  S   -0.105705  -0.116536   0.043764  -0.133557  -0.037714
   48  C 10  X   -0.145202   0.064147  -0.200896   0.054790   0.070458
   49  C 10  Y   -0.008408   0.200753   0.033671  -0.046606   0.179667
   50  C 10  Z   -0.000000   0.000000   0.000000   0.000000  -0.000000
   51  C 11  S    0.060363  -0.026420  -0.009793  -0.035032   0.016570
   52  C 11  S   -0.189459   0.074493   0.033650   0.119085  -0.044764
   53  C 11  X   -0.149247  -0.110924   0.056489   0.178590   0.245697
   54  C 11  Y    0.029012  -0.004788  -0.190891   0.083339  -0.006618
   55  C 11  Z   -0.000000   0.000000   0.000000   0.000000  -0.000000
   56  C 12  S   -0.060366  -0.026420  -0.009792  -0.035054  -0.016522
   57  C 12  S    0.189467   0.074492   0.033648   0.119144   0.044604
   58  C 12  X   -0.149243   0.110934  -0.056474  -0.178261   0.245931
   59  C 12  Y   -0.029013  -0.004782  -0.190890   0.083351   0.006518
   60  C 12  Z   -0.000000   0.000000   0.000000   0.000000  -0.000000
   61  C 13  S   -0.050677   0.038733   0.025281   0.033208  -0.007450
   62  C 13  S    0.159341  -0.130980  -0.077269  -0.112031   0.032254
   63  C 13  X   -0.030457  -0.043406  -0.188905   0.055361   0.085963
   64  C 13  Y    0.059494  -0.197463   0.045440  -0.062877   0.241818
   65  C 13  Z   -0.000000   0.000000   0.000000   0.000000  -0.000000
   66  C 14  S    0.050678   0.038732   0.025280   0.033218   0.007404
   67  C 14  S   -0.159345  -0.130976  -0.077263  -0.112073  -0.032098
   68  C 14  X   -0.030458   0.043411   0.188903  -0.055253   0.086033
   69  C 14  Y   -0.059504  -0.197471   0.045436  -0.063202  -0.241729
   70  C 14  Z   -0.000000   0.000000   0.000000   0.000000  -0.000000
   71  H 15  S   -0.153315   0.006900  -0.151837  -0.112794  -0.118015
   72  H 16  S    0.153310   0.006897  -0.151833  -0.112644   0.118171
   73  H 17  S   -0.012229  -0.177212   0.063472  -0.056414   0.148027
   74  H 18  S    0.012223  -0.177220   0.063463  -0.056605  -0.147950
   75  H 19  S   -0.167693  -0.035573   0.049785   0.182734   0.153823
   76  H 20  S    0.167692  -0.035580   0.049774   0.182527  -0.154064
   77  H 21  S    0.086245  -0.164860  -0.065071  -0.070510   0.184418
   78  H 22  S   -0.086253  -0.164865  -0.065072  -0.070755  -0.184318

                     31         32         33         34         35
                   -0.4125    -0.4046    -0.3820    -0.3775    -0.3718
                     A          A          A          A          A   
    1  N  1  S    0.006093   0.007109  -0.000000  -0.005951  -0.032561
    2  N  1  S   -0.024226  -0.030186  -0.000000   0.027242   0.140630
    3  N  1  X   -0.223932  -0.062222  -0.000000   0.168651   0.038654
    4  N  1  Y   -0.135240  -0.003981  -0.000000   0.074086   0.025766
    5  N  1  Z    0.000000  -0.000000   0.213281  -0.000000   0.000000
    6  N  2  S   -0.006092   0.007110  -0.000000  -0.005960   0.032557
    7  N  2  S    0.024226  -0.030190  -0.000000   0.027282  -0.140616
    8  N  2  X   -0.223918   0.062261  -0.000000  -0.168663   0.038616
    9  N  2  Y    0.135239  -0.004003  -0.000000   0.074093  -0.025723
   10  N  2  Z    0.000000  -0.000000   0.213275  -0.000000   0.000000
   11  C  3  S   -0.017764   0.010139  -0.000000  -0.004790   0.051142
   12  C  3  S    0.063820  -0.038396  -0.000000   0.011975  -0.177539
   13  C  3  X    0.033056  -0.187257  -0.000000  -0.211996  -0.065088
   14  C  3  Y    0.194481   0.143695  -0.000000  -0.091935   0.085260
   15  C  3  Z    0.000000  -0.000000   0.327556  -0.000000   0.000000
   16  C  4  S    0.017767   0.010138  -0.000000  -0.004776  -0.051141
   17  C  4  S   -0.063831  -0.038393  -0.000000   0.011928   0.177535
   18  C  4  X    0.033091   0.187252  -0.000000   0.212015  -0.064992
   19  C  4  Y   -0.194450   0.143734  -0.000000  -0.091913  -0.085264
   20  C  4  Z    0.000000  -0.000000   0.327552  -0.000000   0.000000
   21  C  5  S    0.027573   0.025099  -0.000000   0.000247  -0.037830
   22  C  5  S   -0.094730  -0.086094  -0.000000  -0.003820   0.129699
   23  C  5  X    0.196528  -0.018483  -0.000000  -0.065857   0.145652
   24  C  5  Y   -0.031781  -0.182762  -0.000000  -0.128340  -0.180854
   25  C  5  Z    0.000000  -0.000000   0.260249  -0.000000   0.000000
   26  C  6  S   -0.027569   0.025103  -0.000000   0.000237   0.037828
   27  C  6  S    0.094714  -0.086111  -0.000000  -0.003786  -0.129693
   28  C  6  X    0.196533   0.018431  -0.000000   0.065832   0.145640
   29  C  6  Y    0.031742  -0.182766  -0.000000  -0.128396   0.180802
   30  C  6  Z    0.000000  -0.000000   0.260245  -0.000000   0.000000
   31  C  7  S    0.013210  -0.013693  -0.000000   0.012885   0.030064
   32  C  7  S   -0.043250   0.038989  -0.000000  -0.036938  -0.112362
   33  C  7  X    0.007760  -0.073162  -0.000000   0.345929  -0.022244
   34  C  7  Y   -0.100003   0.200898  -0.000000  -0.052391   0.184114
   35  C  7  Z    0.000000  -0.000000   0.172073  -0.000000   0.000000
   36  C  8  S   -0.013212  -0.013688  -0.000000   0.012893  -0.030063
   37  C  8  S    0.043257   0.038972  -0.000000  -0.036968   0.112361
   38  C  8  X    0.007772   0.073163  -0.000000  -0.345923  -0.022328
   39  C  8  Y    0.100049   0.200875  -0.000000  -0.052330  -0.184119
   40  C  8  Z    0.000000  -0.000000   0.172073  -0.000000   0.000000
   41  C  9  S   -0.016690  -0.022124  -0.000000   0.025734   0.012951
   42  C  9  S    0.058898   0.075250  -0.000000  -0.091859  -0.045821
   43  C  9  X   -0.138621   0.020949  -0.000000   0.035962  -0.218133
   44  C  9  Y   -0.158553   0.031309  -0.000000   0.027628  -0.055775
   45  C  9  Z    0.000000  -0.000000   0.155507  -0.000000   0.000000
   46  C 10  S    0.016686  -0.022129  -0.000000   0.025738  -0.012946
   47  C 10  S   -0.058888   0.075264  -0.000000  -0.091872   0.045800
   48  C 10  X   -0.138626  -0.020906  -0.000000  -0.035918  -0.218110
   49  C 10  Y    0.158566   0.031278  -0.000000   0.027606   0.055837
   50  C 10  Z    0.000000  -0.000000   0.155505  -0.000000   0.000000
   51  C 11  S    0.019027   0.000716  -0.000000  -0.024572  -0.017285
   52  C 11  S   -0.067160  -0.011711  -0.000000   0.086464   0.068287
   53  C 11  X   -0.050433  -0.284200  -0.000000  -0.025515   0.160580
   54  C 11  Y    0.218772   0.047269  -0.000000  -0.011523   0.110997
   55  C 11  Z    0.000000  -0.000000   0.125454  -0.000000   0.000000
   56  C 12  S   -0.019027   0.000720  -0.000000  -0.024577   0.017275
   57  C 12  S    0.067158  -0.011728  -0.000000   0.086482  -0.068255
   58  C 12  X   -0.050377   0.284203  -0.000000   0.025477   0.160592
   59  C 12  Y   -0.218768   0.047315  -0.000000  -0.011490  -0.111033
   60  C 12  Z    0.000000  -0.000000   0.125454  -0.000000   0.000000
   61  C 13  S   -0.015359  -0.023740  -0.000000   0.001232   0.021343
   62  C 13  S    0.046539   0.076721  -0.000000  -0.006002  -0.078219
   63  C 13  X    0.244080   0.044307  -0.000000  -0.183099  -0.083243
   64  C 13  Y   -0.058859  -0.152791  -0.000000  -0.157063  -0.110894
   65  C 13  Z    0.000000  -0.000000   0.152578  -0.000000   0.000000
   66  C 14  S    0.015354  -0.023743  -0.000000   0.001236  -0.021341
   67  C 14  S   -0.046523   0.076729  -0.000000  -0.006017   0.078208
   68  C 14  X    0.244068  -0.044347  -0.000000   0.183122  -0.083186
   69  C 14  Y    0.058838  -0.152800  -0.000000  -0.157096   0.110883
   70  C 14  Z    0.000000  -0.000000   0.152574  -0.000000   0.000000
   71  H 15  S    0.056536  -0.152597  -0.000000   0.170000  -0.219633
   72  H 16  S   -0.056570  -0.152588  -0.000000   0.169933   0.219669
   73  H 17  S    0.084395   0.015369  -0.000000  -0.043514  -0.095391
   74  H 18  S   -0.084398   0.015380  -0.000000  -0.043528   0.095322
   75  H 19  S   -0.069381  -0.237803  -0.000000   0.022320   0.182270
   76  H 20  S    0.069335  -0.237811  -0.000000   0.022363  -0.182262
   77  H 21  S    0.069465  -0.052778  -0.000000  -0.193832  -0.160532
   78  H 22  S   -0.069470  -0.052765  -0.000000  -0.193876   0.160496

                     36         37         38         39         40
                   -0.3593    -0.3584    -0.3349    -0.3249    -0.3051
                     A          A          A          A          A   
    1  N  1  S   -0.015376   0.013394   0.000000   0.020519   0.007993
    2  N  1  S    0.061900  -0.053867   0.000000  -0.088244  -0.036758
    3  N  1  X   -0.051903   0.053855   0.000000   0.215131  -0.126702
    4  N  1  Y    0.137951  -0.061222   0.000000   0.007601  -0.118164
    5  N  1  Z   -0.000000  -0.000000  -0.243661  -0.000000   0.000000
    6  N  2  S   -0.015387  -0.013389   0.000000  -0.020516   0.007998
    7  N  2  S    0.061951   0.053848   0.000000   0.088231  -0.036780
    8  N  2  X    0.051932   0.053834   0.000000   0.215142   0.126682
    9  N  2  Y    0.137972   0.061169   0.000000  -0.007624  -0.118174
   10  N  2  Z   -0.000000  -0.000000   0.243659  -0.000000   0.000000
   11  C  3  S    0.011225  -0.009764   0.000000  -0.005745  -0.000144
   12  C  3  S   -0.041821   0.033587   0.000000   0.014374   0.007095
   13  C  3  X   -0.148404  -0.001204   0.000000   0.051560   0.249541
   14  C  3  Y    0.086435  -0.058453   0.000000  -0.174995   0.015946
   15  C  3  Z   -0.000000  -0.000000  -0.172958  -0.000000   0.000000
   16  C  4  S    0.011237   0.009760   0.000000   0.005744  -0.000148
   17  C  4  S   -0.041865  -0.033572   0.000000  -0.014369   0.007106
   18  C  4  X    0.148418  -0.001264   0.000000   0.051529  -0.249550
   19  C  4  Y    0.086487   0.058418   0.000000   0.174995   0.015929
   20  C  4  Z   -0.000000  -0.000000   0.172959  -0.000000   0.000000
   21  C  5  S   -0.015579   0.000877   0.000000   0.006808  -0.002058
   22  C  5  S    0.057675  -0.003576   0.000000  -0.027085   0.006390
   23  C  5  X    0.101589  -0.226599   0.000000   0.094551  -0.233182
   24  C  5  Y   -0.073326  -0.075024   0.000000   0.227346  -0.023105
   25  C  5  Z   -0.000000  -0.000000  -0.233016  -0.000000   0.000000
   26  C  6  S   -0.015586  -0.000873   0.000000  -0.006806  -0.002056
[...]
   17             0.000842   0.115453   0.013648   0.009658   0.071433
   18             0.000841   0.115464   0.013644   0.009726   0.071362
   19             0.106528   0.005394   0.008527   0.108021   0.079659
   20             0.106527   0.005396   0.008523   0.107771   0.079905
   21             0.028210   0.104149   0.014983   0.016016   0.116475
   22             0.028215   0.104155   0.014983   0.016131   0.116352

                     31         32         33         34         35

                  2.000000   2.000000   2.000000   2.000000   2.000000

    1             0.190645   0.012341   0.137320   0.085329   0.025929
    2             0.190627   0.012356   0.137313   0.085343   0.025911
    3             0.109270   0.159672   0.338964   0.136529   0.070408
    4             0.109243   0.159699   0.338957   0.136537   0.070376
    5             0.128162   0.103987   0.219621   0.056484   0.161462
    6             0.128157   0.103990   0.219615   0.056514   0.161403
    7             0.032321   0.140811   0.098814   0.342490   0.116222
    8             0.032350   0.140782   0.098814   0.342459   0.116241
    9             0.139449   0.011099   0.079869   0.016666   0.139509
   10             0.139463   0.011092   0.079867   0.016658   0.139496
   11             0.159060   0.249773   0.052024   0.011461   0.113516
   12             0.159035   0.249794   0.052023   0.011457   0.113541
   13             0.182144   0.079145   0.073401   0.159808   0.063315
   14             0.182121   0.079163   0.073397   0.159860   0.063280
   15             0.009732   0.068827   0.000000   0.079145   0.127377
   16             0.009744   0.068820   0.000000   0.079084   0.127420
   17             0.020601   0.000503   0.000000   0.004722   0.024061
   18             0.020603   0.000504   0.000000   0.004725   0.024026
   19             0.013842   0.164963   0.000000   0.001164   0.087694
   20             0.013823   0.164976   0.000000   0.001168   0.087688
   21             0.014803   0.008853   0.000000   0.106174   0.070580
   22             0.014804   0.008849   0.000000   0.106221   0.070548

                     36         37         38         39         40

                  2.000000   2.000000   2.000000   2.000000   2.000000

    1             0.071849   0.025130   0.164225   0.125119   0.068409
    2             0.071888   0.025099   0.164221   0.125126   0.068407
    3             0.076062   0.010024   0.082833   0.076065   0.135734
    4             0.076100   0.010013   0.082834   0.076057   0.135743
    5             0.042269   0.144441   0.159016   0.141758   0.123801
    6             0.042334   0.144396   0.159022   0.141766   0.123804
    7             0.005994   0.079293   0.015266   0.149643   0.193885
    8             0.005991   0.079309   0.015269   0.149646   0.193878
    9             0.285506   0.217973   0.177727   0.095767   0.178789
   10             0.285686   0.217806   0.177737   0.095768   0.178788
   11             0.127015   0.090310   0.191806   0.110466   0.089050
   12             0.127054   0.090260   0.191817   0.110476   0.089037
   13             0.129955   0.144328   0.209113   0.073214   0.061312
   14             0.130035   0.144233   0.209114   0.073222   0.061300
   15             0.000944   0.048831   0.000000   0.090648   0.032707
   16             0.000944   0.048847   0.000000   0.090641   0.032719
   17             0.215989   0.150017   0.000000   0.030960   0.001380
   18             0.216150   0.149896   0.000000   0.030948   0.001383
   19             0.001980   0.037789   0.000000   0.053470   0.053096
   20             0.001990   0.037787   0.000000   0.053486   0.053096
   21             0.042123   0.052126   0.000000   0.052873   0.061847
   22             0.042143   0.052091   0.000000   0.052879   0.061836

                     41         42         43         44         45

                  2.000000   2.000000   2.000000   2.000000   2.000000

    1             0.170220   0.049987   0.234291   0.179403   0.100708
    2             0.170214   0.049998   0.234285   0.179417   0.100703
    3             0.013036   0.290614  -0.000026   0.197268   0.088976
    4             0.013036   0.290630  -0.000026   0.197245   0.088989
    5             0.139309   0.002262   0.295585   0.125284   0.052744
    6             0.139305   0.002261   0.295580   0.125278   0.052758
    7             0.415571   0.009241   0.059667   0.032064   0.362591
    8             0.415571   0.009240   0.059679   0.032074   0.362567
    9             0.004149   0.235373   0.185005   0.090746   0.205719
   10             0.004147   0.235381   0.184987   0.090753   0.205718
   11             0.059935   0.336225   0.001074   0.346147   0.003806
   12             0.059940   0.336236   0.001075   0.346123   0.003802
   13             0.197784   0.076278   0.224413   0.029105   0.185447
   14             0.197782   0.076273   0.224412   0.029093   0.185470
   15             0.000000   0.000000   0.000000   0.000000   0.000000
   16             0.000000   0.000000   0.000000   0.000000   0.000000
   17             0.000000   0.000000   0.000000   0.000000   0.000000
   18             0.000000   0.000000   0.000000   0.000000   0.000000
   19             0.000000   0.000000   0.000000   0.000000   0.000000
   20             0.000000   0.000000   0.000000   0.000000   0.000000
   21             0.000000   0.000000   0.000000   0.000000   0.000000
   22             0.000000   0.000000   0.000000   0.000000   0.000000

                     46         47

                  2.000000   2.000000

    1             0.782741   0.799807
    2             0.782964   0.799583
    3             0.050233   0.043456
    4             0.050239   0.043450
    5             0.048242   0.039227
    6             0.048256   0.039215
    7             0.005901   0.009302
    8             0.005903   0.009299
    9             0.001181   0.000810
   10             0.001181   0.000810
   11             0.040054   0.042766
   12             0.040064   0.042752
   13             0.037611   0.024702
   14             0.037621   0.024695
   15             0.003971   0.005277
   16             0.003973   0.005276
   17             0.004684   0.003180
   18             0.004685   0.003178
   19             0.008139   0.006018
   20             0.008142   0.006017
   21             0.017106   0.025595
   22             0.017110   0.025586

               ----- POPULATIONS IN EACH AO -----
                             MULLIKEN      LOWDIN
              1  N  1  S      1.99537     1.99337
              2  N  1  S      1.65023     1.49677
              3  N  1  X      1.11836     1.16178
              4  N  1  Y      1.41524     1.45067
              5  N  1  Z      1.03615     1.03612
              6  N  2  S      1.99537     1.99337
              7  N  2  S      1.65024     1.49678
              8  N  2  X      1.11835     1.16178
              9  N  2  Y      1.41523     1.45067
             10  N  2  Z      1.03615     1.03612
             11  C  3  S      1.99067     1.98486
             12  C  3  S      1.09169     1.01685
             13  C  3  X      0.94092     0.99407
             14  C  3  Y      0.88180     0.94258
             15  C  3  Z      1.01166     1.01106
             16  C  4  S      1.99067     1.98486
             17  C  4  S      1.09170     1.01686
             18  C  4  X      0.94092     0.99408
             19  C  4  Y      0.88180     0.94257
             20  C  4  Z      1.01166     1.01106
             21  C  5  S      1.99044     1.98523
             22  C  5  S      1.11196     1.01382
             23  C  5  X      0.95787     1.00812
             24  C  5  Y      0.95725     1.00795
             25  C  5  Z      0.99382     0.99277
             26  C  6  S      1.99044     1.98523
             27  C  6  S      1.11196     1.01382
             28  C  6  X      0.95787     1.00812
             29  C  6  Y      0.95725     1.00795
             30  C  6  Z      0.99382     0.99277
             31  C  7  S      1.99073     1.98551
             32  C  7  S      1.14766     1.03197
             33  C  7  X      0.96701     1.01663
             34  C  7  Y      0.97441     1.01113
             35  C  7  Z      0.99321     0.99393
             36  C  8  S      1.99073     1.98551
             37  C  8  S      1.14766     1.03197
             38  C  8  X      0.96701     1.01663
             39  C  8  Y      0.97441     1.01113
             40  C  8  Z      0.99321     0.99393
             41  C  9  S      1.99075     1.98551
             42  C  9  S      1.15091     1.03428
             43  C  9  X      0.95878     1.00762
             44  C  9  Y      0.98741     1.02276
             45  C  9  Z      0.97859     0.97907
             46  C 10  S      1.99075     1.98551
             47  C 10  S      1.15091     1.03428
             48  C 10  X      0.95878     1.00761
             49  C 10  Y      0.98741     1.02276
             50  C 10  Z      0.97859     0.97908
             51  C 11  S      1.99067     1.98560
             52  C 11  S      1.14287     1.02613
             53  C 11  X      0.99904     1.02742
             54  C 11  Y      0.96281     1.02173
             55  C 11  Z      0.99102     0.99135
             56  C 12  S      1.99067     1.98560
             57  C 12  S      1.14287     1.02613
             58  C 12  X      0.99904     1.02742
             59  C 12  Y      0.96281     1.02173
             60  C 12  Z      0.99102     0.99135
             61  C 13  S      1.99094     1.98530
             62  C 13  S      1.12526     1.02837
             63  C 13  X      0.87540     0.94094
             64  C 13  Y      1.00273     1.03214
             65  C 13  Z      0.99554     0.99570
             66  C 14  S      1.99094     1.98530
             67  C 14  S      1.12526     1.02837
             68  C 14  X      0.87540     0.94094
             69  C 14  Y      1.00273     1.03214
             70  C 14  Z      0.99554     0.99570
             71  H 15  S      0.91478     0.95263
             72  H 16  S      0.91478     0.95263
             73  H 17  S      0.91224     0.95097
             74  H 18  S      0.91224     0.95097
             75  H 19  S      0.90799     0.94691
             76  H 20  S      0.90799     0.94691
             77  H 21  S      0.90582     0.95037
             78  H 22  S      0.90582     0.95037

          ----- MULLIKEN ATOMIC OVERLAP POPULATIONS -----
          (OFF-DIAGONAL ELEMENTS NEED TO BE MULTIPLIED BY 2)

             1           2           3           4           5

    1    6.4818259
    2   -0.0008970   6.4818293
    3    0.4164387  -0.0312505   4.7533637
    4   -0.0312506   0.4164373   0.4589784   4.7533688
    5   -0.0266939   0.0005843   0.4683745  -0.0353574   4.7779359
    6    0.0005843  -0.0266929  -0.0353576   0.4683722  -0.0096519
    7    0.0006616   0.0000142  -0.0276227  -0.0092416   0.4691701
    8    0.0000142   0.0006616  -0.0092416  -0.0276226  -0.0311377
    9   -0.0089304  -0.0000039  -0.0294724   0.0009524   0.4881917
   10   -0.0000039  -0.0089301   0.0009524  -0.0294723   0.0000289
   11   -0.0246744  -0.0000000  -0.0126277  -0.0000149  -0.0289493
   12   -0.0000000  -0.0246743  -0.0000149  -0.0126279   0.0000004
   13    0.4395314   0.0000042  -0.0427142   0.0016812  -0.0148983
   14    0.0000042   0.4395256   0.0016812  -0.0427135  -0.0000186
   15   -0.0000137   0.0000003   0.0013165   0.0000091  -0.0246903
   16    0.0000003  -0.0000137   0.0000091   0.0013165   0.0015496
   17    0.0000052   0.0000001   0.0013276  -0.0000209  -0.0245095
   18    0.0000001   0.0000052  -0.0000209   0.0013276  -0.0000005
   19    0.0010167  -0.0000000   0.0000422   0.0000016   0.0014407
   20   -0.0000000   0.0010167   0.0000016   0.0000422  -0.0000000
   21   -0.0322759   0.0000000   0.0025994  -0.0000153  -0.0000349
   22    0.0000000  -0.0322755  -0.0000153   0.0025994   0.0000002

             6           7           8           9          10

    6    4.7779381
    7   -0.0311381   4.8085506
    8    0.4691737   0.5330709   4.8085483
    9    0.0000289  -0.0338905   0.0010395   4.8024184
   10    0.4881868   0.0010395  -0.0338902   0.0000002   4.8024175
   11    0.0000004   0.0010571  -0.0000130   0.5150244  -0.0000000
   12   -0.0289497  -0.0000130   0.0010571  -0.0000000   0.5150302
   13   -0.0000186   0.0000584   0.0000011  -0.0338287   0.0000001
   14   -0.0148983   0.0000011   0.0000584   0.0000001  -0.0338286
   15    0.0015497   0.3917062  -0.0259713  -0.0044061  -0.0000228
   16   -0.0246903  -0.0259711   0.3917043  -0.0000228  -0.0044062
   17   -0.0000005  -0.0044452   0.0000301   0.3918578   0.0000000
   18   -0.0245091   0.0000301  -0.0044449   0.0000000   0.3918579
   19   -0.0000000  -0.0000188   0.0000002  -0.0240624   0.0000000
   20    0.0014407   0.0000002  -0.0000188   0.0000000  -0.0240627
   21    0.0000002   0.0000018   0.0000000   0.0015429  -0.0000000
   22   -0.0000349   0.0000000   0.0000018  -0.0000000   0.0015429

            11          12          13          14          15

   11    4.8134363
   12   -0.0000000   4.8134311
   13    0.4886595   0.0000000   4.7809966
   14    0.0000000   0.4886604   0.0000002   4.7810019
   15    0.0000309   0.0000002  -0.0000025  -0.0000000   0.5785480
   16    0.0000002   0.0000309  -0.0000000  -0.0000025  -0.0041395
   17   -0.0264829   0.0000000   0.0016399  -0.0000000   0.0008698
   18    0.0000000  -0.0264833  -0.0000000   0.0016399  -0.0000019
   19    0.3917938   0.0000000  -0.0241141   0.0000000  -0.0000025
   20    0.0000000   0.3917916   0.0000000  -0.0241145  -0.0000000
   21   -0.0308188   0.0000000   0.3928739  -0.0000000  -0.0000001
   22    0.0000000  -0.0308183  -0.0000000   0.3928761   0.0000000

            16          17          18          19          20

   16    0.5785510
   17   -0.0000019   0.5759596
   18    0.0008698  -0.0000000   0.5759592
   19   -0.0000000  -0.0039510  -0.0000000   0.5688379
   20   -0.0000025  -0.0000000  -0.0039513  -0.0000000   0.5688428
   21    0.0000000  -0.0000428   0.0000000  -0.0029959  -0.0000000
   22   -0.0000001   0.0000000  -0.0000428  -0.0000000  -0.0029960

            21          22

   21    0.5749846
   22   -0.0000000   0.5749791

          TOTAL MULLIKEN AND LOWDIN ATOMIC POPULATIONS
       ATOM         MULL.POP.    CHARGE          LOW.POP.     CHARGE
    1 N             7.215343   -0.215343         7.138712   -0.138712
    2 N             7.215341   -0.215341         7.138711   -0.138711
    3 C             5.916747    0.083253         5.949423    0.050577
    4 C             5.916750    0.083250         5.949425    0.050575
    5 C             6.011334   -0.011334         6.007886   -0.007886
    6 C             6.011333   -0.011333         6.007885   -0.007885
    7 C             6.073021   -0.073021         6.039167   -0.039167
    8 C             6.073021   -0.073021         6.039167   -0.039167
    9 C             6.066439   -0.066439         6.029248   -0.029248
   10 C             6.066440   -0.066440         6.029249   -0.029249
   11 C             6.086422   -0.086422         6.052231   -0.052231
   12 C             6.086421   -0.086421         6.052230   -0.052230
   13 C             5.989870    0.010130         5.982447    0.017553
   14 C             5.989873    0.010127         5.982448    0.017552
   15 H             0.914780    0.085220         0.952629    0.047371
   16 H             0.914781    0.085219         0.952629    0.047371
   17 H             0.912235    0.087765         0.950974    0.049026
   18 H             0.912235    0.087765         0.950974    0.049026
   19 H             0.907988    0.092012         0.946910    0.053090
   20 H             0.907990    0.092010         0.946911    0.053089
   21 H             0.905819    0.094181         0.950373    0.049627
   22 H             0.905817    0.094183         0.950371    0.049629

          -------------------------------
          BOND ORDER AND VALENCE ANALYSIS     BOND ORDER THRESHOLD=0.050
          -------------------------------

                   BOND                       BOND                       BOND
  ATOM PAIR DIST  ORDER      ATOM PAIR DIST  ORDER      ATOM PAIR DIST  ORDER
    1   3  1.359  1.327        1   9  2.772  0.122        1  13  1.349  1.469
    2   4  1.359  1.327        2  10  2.772  0.122        2  14  1.349  1.469
    3   4  1.408  1.156        3   5  1.417  1.249        3   8  2.820  0.060
    3  11  2.788  0.077        4   6  1.417  1.249        4   7  2.820  0.060
    4  12  2.788  0.077        5   7  1.398  1.231        5   9  1.402  1.315
    5  13  2.730  0.073        6   8  1.398  1.231        6  10  1.402  1.315
    6  14  2.730  0.073        7   8  1.387  1.599        7  15  1.088  0.961
    8  16  1.088  0.961        9  11  1.387  1.489        9  17  1.087  0.961
   10  12  1.387  1.489       10  18  1.087  0.961       11  13  1.377  1.365
   11  19  1.084  0.961       12  14  1.377  1.365       12  20  1.084  0.961
   13  21  1.086  0.949       14  22  1.086  0.949

                       TOTAL       BONDED        FREE
      ATOM            VALENCE     VALENCE     VALENCE
    1 N                 3.050       3.050       0.000
    2 N                 3.050       3.050       0.000
    3 C                 3.968       3.968      -0.000
    4 C                 3.968       3.968      -0.000
    5 C                 3.986       3.986      -0.000
    6 C                 3.986       3.986      -0.000
    7 C                 3.973       3.973       0.000
    8 C                 3.973       3.973       0.000
    9 C                 3.972       3.972       0.000
   10 C                 3.972       3.972       0.000
   11 C                 3.975       3.975      -0.000
   12 C                 3.975       3.975      -0.000
   13 C                 3.952       3.952       0.000
   14 C                 3.952       3.952       0.000
   15 H                 0.993       0.993       0.000
   16 H                 0.993       0.993       0.000
   17 H                 0.992       0.992       0.000
   18 H                 0.992       0.992      -0.000
   19 H                 0.992       0.992      -0.000
   20 H                 0.992       0.992      -0.000
   21 H                 0.991       0.991       0.000
   22 H                 0.991       0.991      -0.000

          ---------------------
          ELECTROSTATIC MOMENTS
          ---------------------

 POINT   1           X           Y           Z (BOHR)    CHARGE
                -0.000016    0.032696    0.000000        0.00 (A.U.)
         DX          DY          DZ         /D/  (DEBYE)
    -0.000002   -3.278658    0.000000    3.278658
 ...... END OF PROPERTY EVALUATION ......
 STEP CPU TIME =     0.02 TOTAL CPU TIME =         31.4 (      0.5 MIN)
 TOTAL WALL CLOCK TIME=         31.6 SECONDS, CPU UTILIZATION IS    99.43%
               788869  WORDS OF DYNAMIC MEMORY USED
 EXECUTION OF GAMESS TERMINATED NORMALLY Sun Feb 23 19:42:44 2020
 DDI: 263640 bytes (0.3 MB / 0 MWords) used by master data server.

 ----------------------------------------
 CPU timing information for all processes
 ========================================
 0: 31.226 + 0.166 = 31.393
 1: 0.02 + 0.04 = 0.06
 ----------------------------------------
 ddikick.x: exited gracefully.
unset echo
----- accounting info -----
Files used on the master node vusals-mbp were:
-rw-r--r--@ 1 wurthel  staff      1202 Feb 23 19:42 .//input.F05
-rw-r--r--  1 wurthel  staff  20341808 Feb 23 19:42 .//input.F08
-rw-r--r--  1 wurthel  staff   1636000 Feb 23 19:42 .//input.F10
-rw-r--r--  1 wurthel  staff    102367 Feb 23 19:42 .//input.dat
-rw-r--r--@ 1 wurthel  staff      1202 Feb 23 19:41 .//input.inp
-rw-r--r--  1 wurthel  staff    392986 Feb 23 19:42 .//input.log
ls: No match.
ls: No match.
ls: No match.
Sun Feb 23 19:42:47 MSK 2020
31.295u 0.246s 0:34.78 90.6%	0+0k 0+0io 549pf+0w
