----- GAMESS execution script 'rungms' -----
This job is running on host Vusals-MacBook-Pro.local
under operating system Darwin at Sun Feb 16 17:38:29 MSK 2020
Available scratch disk space (Kbyte units) at beginning of the job is
Filesystem   1024-blocks     Used Available Capacity iused               ifree %iused  Mounted on
/dev/disk1s5   118181844 42660896  71109932    38%  995641 9223372036853780166    0%   /
GAMESS temporary binary files will be written to ./
GAMESS supplementary output files will be written to ./
Copying input file Isopropanol_6-31G+(d,p).inp to your run's scratch directory...
cp Isopropanol_6-31G+(d,p).inp .//Isopropanol_6-31G+(d,p).F05
unset echo
.//ddikick.x .//gamess.30Sep2018R3.x Isopropanol_6-31G+(d,p) -ddi 1 1 Vusals-MacBook-Pro.local -scr ./

 Distributed Data Interface kickoff program.
 Initiating 1 compute processes on 1 nodes to run the following command:
 .//gamess.30Sep2018R3.x Isopropanol_6-31G+(d,p) 

          ******************************************************
          *         GAMESS VERSION = 30 SEP 2018 (R3)         *
          *             FROM IOWA STATE UNIVERSITY             *
          * M.W.SCHMIDT, K.K.BALDRIDGE, J.A.BOATZ, S.T.ELBERT, *
          *   M.S.GORDON, J.H.JENSEN, S.KOSEKI, N.MATSUNAGA,   *
          *          K.A.NGUYEN, S.J.SU, T.L.WINDUS,           *
          *       TOGETHER WITH M.DUPUIS, J.A.MONTGOMERY       *
          *         J.COMPUT.CHEM.  14, 1347-1363(1993)        *
          **************** 64 BIT APPLE VERSION ****************

  SINCE 1993, STUDENTS AND POSTDOCS WORKING AT IOWA STATE UNIVERSITY
  AND ALSO IN THEIR VARIOUS JOBS AFTER LEAVING ISU HAVE MADE IMPORTANT
  CONTRIBUTIONS TO THE CODE:
     IVANA ADAMOVIC, CHRISTINE AIKENS, YURI ALEXEEV, POOJA ARORA,
     ANDREY ASADCHEV, ROB BELL, PRADIPTA BANDYOPADHYAY, JONATHAN BENTZ,
     BRETT BODE, KURT BRORSEN, CALEB CARLIN, GALINA CHABAN, WEI CHEN,
     CHEOL HO CHOI, PAUL DAY, ALBERT DEFUSCO, NUWAN DESILVA, TIM DUDLEY,
     DMITRI FEDOROV, ALEX FINDLATER, GRAHAM FLETCHER, MARK FREITAG,
     KURT GLAESEMANN, ANASTASIA GUNINA,
     DAN KEMP, GRANT MERRILL, NORIYUKI MINEZAWA, JONATHAN MULLIN,
     TAKESHI NAGATA, SEAN NEDD, HEATHER NETZLOFF, BOSILJKA NJEGIC, RYAN OLSON,
     MIKE PAK, BUU PHAM,
     SPENCER PRUITT, LUKE ROSKOP, JIM SHOEMAKER, LYUDMILA SLIPCHENKO,
     TONY SMITH, SAROM SOK LEANG, JIE SONG, TETSUYA TAKETSUGU, SIMON WEBB,
     PENG XU, SOOHAENG YOO, FEDERICO ZAHARIEV

  ADDITIONAL CODE HAS BEEN PROVIDED BY COLLABORATORS IN OTHER GROUPS:
     IOWA STATE UNIVERSITY:
          JOE IVANIC, AARON WEST, LAIMUTIS BYTAUTAS, KLAUS RUEDENBERG
     UNIVERSITY OF TOKYO: KIMIHIKO HIRAO, TAKAHITO NAKAJIMA,
          TAKAO TSUNEDA, MUNEAKI KAMIYA, SUSUMU YANAGISAWA,
          KIYOSHI YAGI, MAHITO CHIBA, SEIKEN TOKURA, NAOAKI KAWAKAMI
     UNIVERSITY OF AARHUS: FRANK JENSEN
     UNIVERSITY OF IOWA: VISVALDAS KAIRYS, HUI LI
     NATIONAL INST. OF STANDARDS AND TECHNOLOGY: WALT STEVENS, DAVID GARMER
     UNIVERSITY OF PISA: BENEDETTA MENNUCCI, JACOPO TOMASI
     UNIVERSITY OF MEMPHIS: HENRY KURTZ, PRAKASHAN KORAMBATH
     UNIVERSITY OF ALBERTA: TOBY ZENG, MARIUSZ KLOBUKOWSKI
     UNIVERSITY OF NEW ENGLAND: MARK SPACKMAN
     MIE UNIVERSITY: HIROAKI UMEDA
     NAT. INST. OF ADVANCED INDUSTRIAL SCIENCE AND TECHNOLOGY: KAZUO KITAURA
     MICHIGAN STATE UNIVERSITY:
          KAROL KOWALSKI, MARTA WLOCH, JEFFREY GOUR, JESSE LUTZ,
          WEI LI, JUN SHEN, J. EMILIANO DEUSTUA, PIOTR PIECUCH
     UNIVERSITY OF MINNESOTA:
          YINAN SHU
     UNIVERSITY OF SILESIA: MONIKA MUSIAL, STANISLAW KUCHARSKI
     FACULTES UNIVERSITAIRES NOTRE-DAME DE LA PAIX:
          OLIVIER QUINET, BENOIT CHAMPAGNE
     UNIVERSITY OF CALIFORNIA - SANTA BARBARA: BERNARD KIRTMAN
     INSTITUTE FOR MOLECULAR SCIENCE:
          KAZUYA ISHIMURA, MICHIO KATOUDA, AND SHIGERU NAGASE
     UNIVERSITY OF NOTRE DAME: ANNA POMOGAEVA, DAN CHIPMAN
     KYUSHU UNIVERSITY:
          HARUYUKI NAKANO,
          FENG LONG GU, JACEK KORCHOWIEC, MARCIN MAKOWSKI, AND YURIKO AOKI,
          HIROTOSHI MORI AND EISAKU MIYOSHI
     PENNSYLVANIA STATE UNIVERSITY:
          TZVETELIN IORDANOV, CHET SWALINA, JONATHAN SKONE,
          SHARON HAMMES-SCHIFFER
     WASEDA UNIVERSITY:
          MASATO KOBAYASHI, TOMOKO AKAMA, TSUGUKI TOUMA,
          TAKESHI YOSHIKAWA, YASUHIRO IKABATA, JUNJI SEINO,
          YUYA NAKAJIMA, HIROMI NAKAI
     NANJING UNIVERSITY: SHUHUA LI
     UNIVERSITY OF NEBRASKA:
          PEIFENG SU, DEJUN SI, NANDUN THELLAMUREGE, YALI WANG, HUI LI
     UNIVERSITY OF ZURICH: ROBERTO PEVERATI, KIM BALDRIDGE
     N. COPERNICUS UNIVERSITY AND JACKSON STATE UNIVERSITY:
          MARIA BARYSZ
     UNIVERSITY OF COPENHAGEN: Jimmy Kromann, CASPER STEINMANN
     TOKYO INSTITUTE OF TECHNOLOGY: HIROYA NAKATA
     NAGOYA UNIVERSITY: YOSHIO NISHIMOTO, STEPHAN IRLE
     MOSCOW STATE UNIVERSITY: VLADIMIR MIRONOV

 EXECUTION OF GAMESS BEGUN Sun Feb 16 17:38:29 2020

            ECHO OF THE FIRST FEW INPUT CARDS -
 INPUT CARD>!   File created by the GAMESS Input Deck Generator Plugin for Avogadro         
 INPUT CARD> $BASIS GBASIS=N31 NGAUSS=6 NDFUNC=1 NPFUNC=1 DIFFSP=.TRUE. $END                
 INPUT CARD> $CONTRL SCFTYP=RHF RUNTYP=ENERGY $END                                          
 INPUT CARD>                                                                                
 INPUT CARD> $DATA                                                                          
 INPUT CARD>Title                                                                           
 INPUT CARD>C1                                                                              
 INPUT CARD>C     6.0    -2.23017     0.64194    -0.55353                                   
 INPUT CARD>C     6.0    -3.48479     0.89450     0.26872                                   
 INPUT CARD>H     1.0    -3.49164     0.28680     1.17970                                   
 INPUT CARD>H     1.0    -4.37717     0.61938    -0.30386                                   
 INPUT CARD>H     1.0    -3.56508     1.94922     0.54999                                   
 INPUT CARD>C     6.0    -0.95951     0.96035     0.22212                                   
 INPUT CARD>H     1.0    -1.07664     1.84917     0.84940                                   
 INPUT CARD>H     1.0    -0.13749     1.15092    -0.47691                                   
 INPUT CARD>H     1.0    -0.64733     0.11866     0.84973                                   
 INPUT CARD>O     8.0    -2.20161    -0.72146    -0.96385                                   
 INPUT CARD>H     1.0    -2.26895     1.25668    -1.45907                                   
 INPUT CARD>H     1.0    -2.22646    -1.27444    -0.16244                                   
 INPUT CARD> $END                                                                           
    1000000 WORDS OF MEMORY AVAILABLE

     BASIS OPTIONS
     -------------
     GBASIS=N31          IGAUSS=       6      POLAR=POPN31  
     NDFUNC=       1     NFFUNC=       0     DIFFSP=       T
     NPFUNC=       1      DIFFS=       F     BASNAM=        


     RUN TITLE
     ---------
 Title                                                                           

 THE POINT GROUP OF THE MOLECULE IS C1      
 THE ORDER OF THE PRINCIPAL AXIS IS     0

 ATOM      ATOMIC                      COORDINATES (BOHR)
           CHARGE         X                   Y                   Z
 C           6.0    -4.2144102060        1.2130907006       -1.0460200260
 C           6.0    -6.5852982248        1.6903598960        0.5078071674
 H           1.0    -6.5982428478        0.5419734133        2.2293097477
 H           1.0    -8.2716519017        1.1704584823       -0.5742121386
 H           1.0    -6.7370243243        3.6834916898        1.0393303960
 C           6.0    -1.8132109825        1.8147983523        0.4197459364
 H           1.0    -2.0345545874        3.4944246047        1.6051332540
 H           1.0    -0.2598184261        2.1749234338       -0.9012292208
 H           1.0    -1.2232763236        0.2242348857        1.6057568635
 O           8.0    -4.1604396318       -1.3633617111       -1.8214123933
 H           1.0    -4.2876937798        2.3747808543       -2.7572424969
 H           1.0    -4.2073993226       -2.4083423878       -0.3069670894

          INTERNUCLEAR DISTANCES (ANGS.)
          ------------------------------

                1 C          2 C          3 H          4 H          5 H     

   1 C       0.0000000    1.5211683 *  2.1729052 *  2.1615858 *  2.1699590 *
   2 C       1.5211683 *  0.0000000    1.0950940 *  1.0953908 *  1.0945289 *
   3 H       2.1729052 *  1.0950940 *  0.0000000    1.7594667 *  1.7792044 *
   4 H       2.1615858 *  1.0953908 *  1.7594667 *  0.0000000    1.7768017 *
   5 H       2.1699590 *  1.0945289 *  1.7792044 *  1.7768017 *  0.0000000  
   6 C       1.5223648 *  2.5265682 *  2.7896794 *  3.4746677    2.8061286 *
   7 H       2.1808825 *  2.6547637 *  2.8952242 *  3.7061962    2.5083839 *
   8 H       2.1550501 *  3.4389145    3.8394508    4.2763732    3.6660851  
   9 H       2.1790693 *  2.9984462 *  2.8683184 *  3.9361398    3.4574643  
  10 O       1.4240919 *  2.4035612 *  2.6973269 *  2.6394128 *  3.3590614  
  11 H       1.0951766 *  2.1435250 *  3.0657373    2.4870169 *  2.4891538 *
  12 H       1.9558828 *  2.5443259 *  2.4165038 *  2.8691649 *  3.5625053  

                6 C          7 H          8 H          9 H         10 O     

   1 C       1.5223648 *  2.1808825 *  2.1550501 *  2.1790693 *  1.4240919 *
   2 C       2.5265682 *  2.6547637 *  3.4389145    2.9984462 *  2.4035612 *
   3 H       2.7896794 *  2.8952242 *  3.8394508    2.8683184 *  2.6973269 *
   4 H       3.4746677    3.7061962    4.2763732    3.9361398    2.6394128 *
   5 H       2.8061286 *  2.5083839 *  3.6660851    3.4574643    3.3590614  
   6 C       0.0000000    1.0941666 *  1.0957540 *  1.0953505 *  2.4037101 *
   7 H       1.0941666 *  0.0000000    1.7688002 *  1.7829672 *  3.3408938  
   8 H       1.0957540 *  1.7688002 *  0.0000000    1.7565509 *  2.8290473 *
   9 H       1.0953505 *  1.7829672 *  1.7565509 *  0.0000000    2.5319282 *
  10 O       2.4037101 *  3.3408938    2.8290473 *  2.5319282 *  0.0000000  
  11 H       2.1514749 *  2.6648980 *  2.3492435 *  3.0422522    2.0402979 *
  12 H       2.5975633 *  3.4789144    3.2163735    2.3364219 *  0.9739930 *

               11 H         12 H     

   1 C       1.0951766 *  1.9558828 *
   2 C       2.1435250 *  2.5443259 *
   3 H       3.0657373    2.4165038 *
   4 H       2.4870169 *  2.8691649 *
   5 H       2.4891538 *  3.5625053  
   6 C       2.1514749 *  2.5975633 *
   7 H       2.6648980 *  3.4789144  
   8 H       2.3492435 *  3.2163735  
   9 H       3.0422522    2.3364219 *
  10 O       2.0402979 *  0.9739930 *
  11 H       0.0000000    2.8442263 *
  12 H       2.8442263 *  0.0000000  

  * ... LESS THAN  3.000


     ATOMIC BASIS SET
     ----------------
 THE CONTRACTED PRIMITIVE FUNCTIONS HAVE BEEN UNNORMALIZED
 THE CONTRACTED BASIS FUNCTIONS ARE NOW NORMALIZED TO UNITY

  SHELL TYPE  PRIMITIVE        EXPONENT          CONTRACTION COEFFICIENT(S)

 C         

      1   S       1          3047.5248800    0.001834737132
      1   S       2           457.3695180    0.014037322813
      1   S       3           103.9486850    0.068842622264
      1   S       4            29.2101553    0.232184443216
      1   S       5             9.2866630    0.467941348435
      1   S       6             3.1639270    0.362311985337

      2   L       7             7.8682723   -0.119332419775    0.068999066591
      2   L       8             1.8812885   -0.160854151696    0.316423960957
      2   L       9             0.5442493    1.143456437840    0.744308290898

      3   L      10             0.1687145    1.000000000000    1.000000000000

      4   L      11             0.0438000    1.000000000000    1.000000000000

      5   D      12             0.8000000    1.000000000000

 C         

      6   S      13          3047.5248800    0.001834737132
      6   S      14           457.3695180    0.014037322813
      6   S      15           103.9486850    0.068842622264
      6   S      16            29.2101553    0.232184443216
      6   S      17             9.2866630    0.467941348435
      6   S      18             3.1639270    0.362311985337

      7   L      19             7.8682723   -0.119332419775    0.068999066591
      7   L      20             1.8812885   -0.160854151696    0.316423960957
      7   L      21             0.5442493    1.143456437840    0.744308290898

      8   L      22             0.1687145    1.000000000000    1.000000000000

      9   L      23             0.0438000    1.000000000000    1.000000000000

     10   D      24             0.8000000    1.000000000000

 H         

     11   S      25            18.7311370    0.033494604338
     11   S      26             2.8253944    0.234726953484
     11   S      27             0.6401217    0.813757326146

     12   S      28             0.1612778    1.000000000000

     13   P      29             1.1000000    1.000000000000

 H         

     14   S      30            18.7311370    0.033494604338
     14   S      31             2.8253944    0.234726953484
     14   S      32             0.6401217    0.813757326146

     15   S      33             0.1612778    1.000000000000

     16   P      34             1.1000000    1.000000000000

 H         

     17   S      35            18.7311370    0.033494604338
     17   S      36             2.8253944    0.234726953484
     17   S      37             0.6401217    0.813757326146

     18   S      38             0.1612778    1.000000000000

     19   P      39             1.1000000    1.000000000000

 C         

     20   S      40          3047.5248800    0.001834737132
     20   S      41           457.3695180    0.014037322813
     20   S      42           103.9486850    0.068842622264
     20   S      43            29.2101553    0.232184443216
     20   S      44             9.2866630    0.467941348435
     20   S      45             3.1639270    0.362311985337

     21   L      46             7.8682723   -0.119332419775    0.068999066591
     21   L      47             1.8812885   -0.160854151696    0.316423960957
     21   L      48             0.5442493    1.143456437840    0.744308290898

     22   L      49             0.1687145    1.000000000000    1.000000000000

     23   L      50             0.0438000    1.000000000000    1.000000000000

     24   D      51             0.8000000    1.000000000000

 H         

     25   S      52            18.7311370    0.033494604338
     25   S      53             2.8253944    0.234726953484
     25   S      54             0.6401217    0.813757326146

     26   S      55             0.1612778    1.000000000000

     27   P      56             1.1000000    1.000000000000

 H         

     28   S      57            18.7311370    0.033494604338
     28   S      58             2.8253944    0.234726953484
     28   S      59             0.6401217    0.813757326146

     29   S      60             0.1612778    1.000000000000

     30   P      61             1.1000000    1.000000000000

 H         

     31   S      62            18.7311370    0.033494604338
     31   S      63             2.8253944    0.234726953484
     31   S      64             0.6401217    0.813757326146

     32   S      65             0.1612778    1.000000000000

     33   P      66             1.1000000    1.000000000000

 O         

     34   S      67          5484.6716600    0.001831074430
     34   S      68           825.2349460    0.013950172200
     34   S      69           188.0469580    0.068445078098
     34   S      70            52.9645000    0.232714335992
     34   S      71            16.8975704    0.470192897984
     34   S      72             5.7996353    0.358520852987

     35   L      73            15.5396162   -0.110777549525    0.070874268231
     35   L      74             3.5999336   -0.148026262701    0.339752839147
     35   L      75             1.0137618    1.130767015354    0.727158577316

     36   L      76             0.2700058    1.000000000000    1.000000000000

     37   L      77             0.0845000    1.000000000000    1.000000000000

     38   D      78             0.8000000    1.000000000000

 H         

     39   S      79            18.7311370    0.033494604338
     39   S      80             2.8253944    0.234726953484
     39   S      81             0.6401217    0.813757326146

     40   S      82             0.1612778    1.000000000000

     41   P      83             1.1000000    1.000000000000

 H         

     42   S      84            18.7311370    0.033494604338
     42   S      85             2.8253944    0.234726953484
     42   S      86             0.6401217    0.813757326146

     43   S      87             0.1612778    1.000000000000

     44   P      88             1.1000000    1.000000000000

 TOTAL NUMBER OF BASIS SET SHELLS             =   44
 NUMBER OF CARTESIAN GAUSSIAN BASIS FUNCTIONS =  116
 NUMBER OF ELECTRONS                          =   34
 CHARGE OF MOLECULE                           =    0
 SPIN MULTIPLICITY                            =    1
 NUMBER OF OCCUPIED ORBITALS (ALPHA)          =   17
 NUMBER OF OCCUPIED ORBITALS (BETA )          =   17
 TOTAL NUMBER OF ATOMS                        =   12
 THE NUCLEAR REPULSION ENERGY IS      135.0113836103

     $CONTRL OPTIONS
     ---------------
 SCFTYP=RHF          RUNTYP=ENERGY       EXETYP=RUN     
 MPLEVL=       0     CITYP =NONE         CCTYP =NONE         VBTYP =NONE    
 DFTTYP=NONE         TDDFT =NONE    
 MULT  =       1     ICHARG=       0     NZVAR =       0     COORD =UNIQUE  
 PP    =NONE         RELWFN=NONE         LOCAL =NONE         NUMGRD=       F
 ISPHER=      -1     NOSYM =       0     MAXIT =      30     UNITS =ANGS    
 PLTORB=       F     MOLPLT=       F     AIMPAC=       F     FRIEND=        
 NPRINT=       7     IREST =       0     GEOM  =INPUT   
 NORMF =       0     NORMP =       0     ITOL  =      20     ICUT  =       9
 INTTYP=BEST         GRDTYP=BEST         QMTTOL= 1.0E-06

     $SYSTEM OPTIONS
     ---------------
  REPLICATED MEMORY=     1000000 WORDS (ON EVERY NODE).
 DISTRIBUTED MEMDDI=           0 MILLION WORDS IN AGGREGATE,
 MEMDDI DISTRIBUTED OVER   1 PROCESSORS IS           0 WORDS/PROCESSOR.
 TOTAL MEMORY REQUESTED ON EACH PROCESSOR=     1000000 WORDS.
 TIMLIM=      525600.00 MINUTES, OR     365.0 DAYS.
 PARALL= F  BALTYP=  DLB     KDIAG=    0  COREFL= F
 MXSEQ2=     300 MXSEQ3=     150  mem10=         0

          ----------------
          PROPERTIES INPUT
          ----------------

     MOMENTS            FIELD           POTENTIAL          DENSITY
 IEMOM =       1   IEFLD =       0   IEPOT =       0   IEDEN =       0
 WHERE =COMASS     WHERE =NUCLEI     WHERE =NUCLEI     WHERE =NUCLEI  
 OUTPUT=BOTH       OUTPUT=BOTH       OUTPUT=BOTH       OUTPUT=BOTH    
 IEMINT=       0   IEFINT=       0                     IEDINT=       0
                                                       MORB  =       0
          EXTRAPOLATION IN EFFECT
          SOSCF IN EFFECT
 ORBITAL PRINTING OPTION: NPREO=     1   116     2     1

     -------------------------------
     INTEGRAL TRANSFORMATION OPTIONS
     -------------------------------
     NWORD  =            0
     CUTOFF = 1.0E-09     MPTRAN =       0
     DIRTRF =       F     AOINTS =DUP     

          ----------------------
          INTEGRAL INPUT OPTIONS
          ----------------------
 NOPK  =       1 NORDER=       0 SCHWRZ=       T

     ------------------------------------------
     THE POINT GROUP IS C1 , NAXIS= 0, ORDER= 1
     ------------------------------------------

     DIMENSIONS OF THE SYMMETRY SUBSPACES ARE
 A   =  116

 ..... DONE SETTING UP THE RUN .....
 STEP CPU TIME =     0.00 TOTAL CPU TIME =          0.0 (      0.0 MIN)
 TOTAL WALL CLOCK TIME=          0.0 SECONDS, CPU UTILIZATION IS   100.00%

          ********************
          1 ELECTRON INTEGRALS
          ********************
 ...... END OF ONE-ELECTRON INTEGRALS ......
 STEP CPU TIME =     0.01 TOTAL CPU TIME =          0.0 (      0.0 MIN)
 TOTAL WALL CLOCK TIME=          0.0 SECONDS, CPU UTILIZATION IS   100.00%

          -------------
          GUESS OPTIONS
          -------------
          GUESS =HUCKEL            NORB  =       0          NORDER=       0
          MIX   =       F          PRTMO =       F          PUNMO =       F
          TOLZ  = 1.0E-08          TOLE  = 1.0E-05
          SYMDEN=       F          PURIFY=       F

 INITIAL GUESS ORBITALS GENERATED BY HUCKEL   ROUTINE.
 HUCKEL GUESS REQUIRES    109348 WORDS.

 SYMMETRIES FOR INITIAL GUESS ORBITALS FOLLOW.   BOTH SET(S).
    17 ORBITALS ARE OCCUPIED (    4 CORE ORBITALS).
     5=A        6=A        7=A        8=A        9=A       10=A       11=A   
    12=A       13=A       14=A       15=A       16=A       17=A       18=A   
    19=A       20=A       21=A       22=A       23=A       24=A       25=A   
    26=A       27=A   
 ...... END OF INITIAL ORBITAL SELECTION ......
 STEP CPU TIME =     0.01 TOTAL CPU TIME =          0.0 (      0.0 MIN)
 TOTAL WALL CLOCK TIME=          0.0 SECONDS, CPU UTILIZATION IS    66.67%

                    ----------------------
                    AO INTEGRAL TECHNOLOGY
                    ----------------------
     S,P,L SHELL ROTATED AXIS INTEGRALS, REPROGRAMMED BY
        KAZUYA ISHIMURA (IMS) AND JOSE SIERRA (SYNSTAR).
     S,P,D,L SHELL ROTATED AXIS INTEGRALS PROGRAMMED BY
        KAZUYA ISHIMURA (INSTITUTE FOR MOLECULAR SCIENCE).
     S,P,D,F,G SHELL TO TOTAL QUARTET ANGULAR MOMENTUM SUM 5,
        ERIC PROGRAM BY GRAHAM FLETCHER (ELORET AND NASA ADVANCED
        SUPERCOMPUTING DIVISION, AMES RESEARCH CENTER).
     S,P,D,F,G,L SHELL GENERAL RYS QUADRATURE PROGRAMMED BY
        MICHEL DUPUIS (PACIFIC NORTHWEST NATIONAL LABORATORY).

          --------------------
          2 ELECTRON INTEGRALS
          --------------------

 THE -PK- OPTION IS OFF, THE INTEGRALS ARE NOT IN SUPERMATRIX FORM.
 STORING   15000 INTEGRALS/RECORD ON DISK, USING 12 BYTES/INTEGRAL.
 TWO ELECTRON INTEGRAL EVALUATION REQUIRES   91386 WORDS OF MEMORY.
 SCHWARZ INEQUALITY OVERHEAD:      6784 INTEGRALS, T=        0.01
 II,JST,KST,LST =  1  1  1  1 NREC =         1 INTLOC =    1
 II,JST,KST,LST =  2  1  1  1 NREC =         1 INTLOC =    2
 II,JST,KST,LST =  3  1  1  1 NREC =         1 INTLOC =   34
 II,JST,KST,LST =  4  1  1  1 NREC =         1 INTLOC =  214
 II,JST,KST,LST =  5  1  1  1 NREC =         1 INTLOC =  776
 II,JST,KST,LST =  6  1  1  1 NREC =         1 INTLOC = 2864
 II,JST,KST,LST =  7  1  1  1 NREC =         1 INTLOC = 6852
 II,JST,KST,LST =  8  1  1  1 NREC =         2 INTLOC =14758
 II,JST,KST,LST =  9  1  1  1 NREC =         5 INTLOC = 6492
 II,JST,KST,LST = 10  1  1  1 NREC =         9 INTLOC =  925
 II,JST,KST,LST = 11  1  1  1 NREC =        17 INTLOC = 4297
 II,JST,KST,LST = 12  1  1  1 NREC =        19 INTLOC = 3970
 II,JST,KST,LST = 13  1  1  1 NREC =        21 INTLOC = 5988
 II,JST,KST,LST = 14  1  1  1 NREC =        28 INTLOC =12048
 II,JST,KST,LST = 15  1  1  1 NREC =        31 INTLOC = 9615
 II,JST,KST,LST = 16  1  1  1 NREC =        34 INTLOC =10191
 II,JST,KST,LST = 17  1  1  1 NREC =        44 INTLOC =14965
 II,JST,KST,LST = 18  1  1  1 NREC =        48 INTLOC =13738
 II,JST,KST,LST = 19  1  1  1 NREC =        53 INTLOC = 1250
 II,JST,KST,LST = 20  1  1  1 NREC =        67 INTLOC = 1691
 II,JST,KST,LST = 21  1  1  1 NREC =        70 INTLOC =11719
 II,JST,KST,LST = 22  1  1  1 NREC =        93 INTLOC =14606
 II,JST,KST,LST = 23  1  1  1 NREC =       123 INTLOC = 1577
 II,JST,KST,LST = 24  1  1  1 NREC =       158 INTLOC = 5515
 II,JST,KST,LST = 25  1  1  1 NREC =       220 INTLOC = 2568
 II,JST,KST,LST = 26  1  1  1 NREC =       232 INTLOC = 3032
 II,JST,KST,LST = 27  1  1  1 NREC =       245 INTLOC = 7588
 II,JST,KST,LST = 28  1  1  1 NREC =       284 INTLOC = 6889
 II,JST,KST,LST = 29  1  1  1 NREC =       297 INTLOC = 1424
 II,JST,KST,LST = 30  1  1  1 NREC =       313 INTLOC =  328
 II,JST,KST,LST = 31  1  1  1 NREC =       351 INTLOC =10995
 II,JST,KST,LST = 32  1  1  1 NREC =       368 INTLOC = 3712
 II,JST,KST,LST = 33  1  1  1 NREC =       387 INTLOC = 2890
 II,JST,KST,LST = 34  1  1  1 NREC =       439 INTLOC = 1010
 II,JST,KST,LST = 35  1  1  1 NREC =       453 INTLOC = 7703
 II,JST,KST,LST = 36  1  1  1 NREC =       535 INTLOC =14828
 II,JST,KST,LST = 37  1  1  1 NREC =       642 INTLOC = 3674
 II,JST,KST,LST = 38  1  1  1 NREC =       763 INTLOC =13297
 II,JST,KST,LST = 39  1  1  1 NREC =       966 INTLOC =   95
 II,JST,KST,LST = 40  1  1  1 NREC =      1004 INTLOC = 1345
 II,JST,KST,LST = 41  1  1  1 NREC =      1044 INTLOC = 6793
 II,JST,KST,LST = 42  1  1  1 NREC =      1163 INTLOC =14759
 II,JST,KST,LST = 43  1  1  1 NREC =      1205 INTLOC = 2841
 II,JST,KST,LST = 44  1  1  1 NREC =      1251 INTLOC = 5057
 SCHWARZ INEQUALITY TEST SKIPPED       49608 INTEGRAL BLOCKS.
 TOTAL NUMBER OF NONZERO TWO-ELECTRON INTEGRALS =            20596212
       1374 INTEGRAL RECORDS WERE STORED ON DISK FILE  8.
  ...... END OF TWO-ELECTRON INTEGRALS .....
 STEP CPU TIME =     0.95 TOTAL CPU TIME =          1.0 (      0.0 MIN)
 TOTAL WALL CLOCK TIME=          1.1 SECONDS, CPU UTILIZATION IS    92.38%

          --------------------------
                 RHF SCF CALCULATION
          --------------------------

     NUCLEAR ENERGY =       135.0113836103
     MAXIT =   30     NPUNCH=    2
     EXTRAP=T  DAMP=F  SHIFT=F  RSTRCT=F  DIIS=F  DEM=F  SOSCF=T
     DENSITY MATRIX CONV=  1.00E-05
     SOSCF WILL OPTIMIZE    1683 ORBITAL ROTATIONS, SOGTOL=   0.250
     MEMORY REQUIRED FOR RHF ITERS=    132548 WORDS.

 ITER EX DEM     TOTAL ENERGY        E CHANGE  DENSITY CHANGE     ORB. GRAD
   1  0  0     -192.5519355671  -192.5519355671   0.428936535   0.000000000
          ---------------START SECOND ORDER SCF---------------
   2  1  0     -193.0929384200    -0.5410028529   0.066455894   0.029551384
   3  2  0     -193.1269028873    -0.0339644673   0.047985621   0.012758153
   4  3  0     -193.1330086550    -0.0061057677   0.013238926   0.002463748
   5  4  0     -193.1332242528    -0.0002155978   0.005291563   0.001576199
   6  5  0     -193.1332629126    -0.0000386598   0.002573150   0.000186225
   7  6  0     -193.1332653915    -0.0000024789   0.001056952   0.000065519
   8  7  0     -193.1332655922    -0.0000002007   0.000088083   0.000017746
   9  8  0     -193.1332656067    -0.0000000145   0.000027998   0.000003625
  10  9  0     -193.1332656077    -0.0000000010   0.000013277   0.000000985
  11 10  0     -193.1332656078    -0.0000000001   0.000003675   0.000000266

          -----------------
          DENSITY CONVERGED
          -----------------
     TIME TO FORM FOCK OPERATORS=       2.1 SECONDS (       0.2 SEC/ITER)
     TIME TO SOLVE SCF EQUATIONS=       0.0 SECONDS (       0.0 SEC/ITER)

 FINAL RHF ENERGY IS     -193.1332656078 AFTER  11 ITERATIONS

          ------------
          EIGENVECTORS
          ------------

                      1          2          3          4          5
                  -20.5657   -11.2838   -11.2209   -11.2199    -1.3589
                     A          A          A          A          A   
    1  C  1  S   -0.000044   0.996103  -0.005046  -0.005023  -0.073302
    2  C  1  S    0.000080   0.028035   0.000071  -0.000007   0.136480
    3  C  1  X    0.000009   0.000017  -0.000082   0.000078   0.001685
    4  C  1  Y   -0.000359  -0.000862   0.000017   0.000026  -0.090092
    5  C  1  Z   -0.000135  -0.000126   0.000077   0.000050  -0.017630
    6  C  1  S    0.001015  -0.019960   0.003060   0.003739   0.039279
    7  C  1  X   -0.000014  -0.000046  -0.001762   0.001813   0.000730
    8  C  1  Y   -0.000407   0.000886   0.000919   0.000786   0.004545
    9  C  1  Z    0.000236  -0.001226   0.000721   0.000755   0.009541
   10  C  1  S    0.003610   0.004552   0.008344   0.013881   0.040881
   11  C  1  X    0.000129  -0.000285   0.001007  -0.000522   0.002968
   12  C  1  Y   -0.000844  -0.000318   0.000588   0.000581  -0.019348
   13  C  1  Z    0.000255   0.001864   0.001235   0.002603   0.001232
   14  C  1 XX   -0.000078  -0.001146  -0.000302  -0.000324  -0.006170
   15  C  1 YY    0.000128  -0.001010  -0.000190  -0.000201   0.020337
   16  C  1 ZZ   -0.000083  -0.000976  -0.000188  -0.000206  -0.005954
   17  C  1 XY   -0.000005  -0.000007   0.000040  -0.000032  -0.000539
   18  C  1 XZ   -0.000000   0.000004   0.000128  -0.000126  -0.000259
   19  C  1 YZ    0.000054  -0.000108  -0.000047  -0.000046   0.008093
   20  C  2  S   -0.000005   0.004808   0.995775   0.009167  -0.016935
   21  C  2  S    0.000035   0.000156   0.028445   0.000084   0.031361
   22  C  2  X   -0.000033   0.000159   0.000021  -0.000118   0.017760
   23  C  2  Y    0.000035  -0.000049  -0.000032  -0.000034  -0.010062
   24  C  2  Z    0.000026  -0.000069   0.000087  -0.000053  -0.012473
   25  C  2  S   -0.000211   0.004628  -0.016398   0.000060   0.018906
   26  C  2  X   -0.000156   0.001674  -0.000953   0.000446   0.002547
   27  C  2  Y    0.000005  -0.000448   0.000434   0.000371  -0.004183
   28  C  2  Z    0.000034  -0.001045   0.000571   0.000516  -0.004702
   29  C  2  S   -0.001029  -0.003522  -0.003513  -0.007114  -0.009201
   30  C  2  X   -0.000167  -0.001132  -0.000614  -0.001546  -0.001837
   31  C  2  Y    0.000286   0.000520   0.000272   0.000461   0.005985
   32  C  2  Z    0.000126   0.000278   0.000269   0.001043   0.000873
   33  C  2 XX   -0.000044  -0.000316  -0.001618  -0.000023   0.003012
   34  C  2 YY   -0.000057  -0.000127  -0.001434  -0.000078  -0.000770
   35  C  2 ZZ   -0.000033  -0.000266  -0.001544  -0.000060   0.001024
   36  C  2 XY    0.000037   0.000019   0.000010  -0.000010  -0.001796
   37  C  2 XZ    0.000009   0.000166   0.000095   0.000012  -0.003251
   38  C  2 YZ   -0.000028  -0.000027  -0.000005   0.000016   0.001015
   39  H  3  S    0.000010  -0.000171  -0.000002  -0.000089   0.007479
   40  H  3  S   -0.000110  -0.000075   0.003157  -0.000169   0.003548
   41  H  3  X   -0.000008   0.000037   0.000068  -0.000049   0.000366
   42  H  3  Y    0.000006   0.000016  -0.000148  -0.000011   0.000204
   43  H  3  Z    0.000010  -0.000039   0.000158  -0.000021  -0.001070
   44  H  4  S    0.000001  -0.000144   0.000019   0.000039   0.007250
   45  H  4  S   -0.000072  -0.000274   0.003017   0.000554   0.001070
   46  H  4  X   -0.000001   0.000019  -0.000124   0.000039   0.001118
   47  H  4  Y    0.000000   0.000012  -0.000070   0.000005  -0.000129
   48  H  4  Z   -0.000001  -0.000007  -0.000149   0.000002   0.000166
   49  H  5  S    0.000019  -0.000153  -0.000030  -0.000040   0.004896
   50  H  5  S    0.000031  -0.000035   0.002828  -0.000557   0.000379
   51  H  5  X    0.000007   0.000018   0.000040  -0.000082  -0.000056
   52  H  5  Y   -0.000021  -0.000015   0.000244   0.000025  -0.000609
   53  H  5  Z   -0.000004  -0.000014   0.000044  -0.000011  -0.000005
   54  C  6  S   -0.000002   0.004665  -0.009253   0.995784  -0.016649
   55  C  6  S    0.000047   0.000102  -0.000459   0.028495   0.031243
   56  C  6  X    0.000023  -0.000143   0.000109   0.000008  -0.017428
   57  C  6  Y    0.000032  -0.000060   0.000010  -0.000014  -0.010949
   58  C  6  Z    0.000032  -0.000074  -0.000066   0.000033  -0.011719
   59  C  6  S   -0.000255   0.004971   0.000454  -0.016806   0.016500
   60  C  6  X    0.000206  -0.001786  -0.000567   0.001018  -0.003043
   61  C  6  Y    0.000051  -0.000453  -0.000326   0.000466  -0.003657
   62  C  6  Z   -0.000096  -0.000787   0.000540   0.000875  -0.003181
   63  C  6  S   -0.001465  -0.001672  -0.005754  -0.006982  -0.017002
   64  C  6  X    0.000280   0.000569   0.001375   0.001343   0.002566
   65  C  6  Y    0.000327   0.000508   0.000213   0.000463   0.006620
   66  C  6  Z    0.000129   0.000099   0.001024   0.000635   0.002954
   67  C  6 XX   -0.000036  -0.000347   0.000021  -0.001623   0.003056
   68  C  6 YY   -0.000054  -0.000132  -0.000065  -0.001438  -0.000458
   69  C  6 ZZ   -0.000031  -0.000269  -0.000046  -0.001518   0.000815
   70  C  6 XY   -0.000032  -0.000037  -0.000007  -0.000040   0.002023
   71  C  6 XZ   -0.000005  -0.000163  -0.000002  -0.000096   0.003161
   72  C  6 YZ   -0.000032  -0.000034   0.000034  -0.000005   0.001065
   73  H  7  S    0.000023  -0.000144  -0.000137  -0.000016   0.004926
   74  H  7  S    0.000092  -0.000434   0.000190   0.002757   0.000278
   75  H  7  X   -0.000004   0.000005   0.000029  -0.000085   0.000222
   76  H  7  Y   -0.000025   0.000012   0.000003   0.000200  -0.000446
   77  H  7  Z   -0.000006  -0.000014  -0.000033   0.000123  -0.000299
   78  H  8  S    0.000005  -0.000144   0.000031   0.000011   0.005909
   79  H  8  S   -0.000143  -0.000219   0.000675   0.003214   0.003110
   80  H  8  X    0.000000  -0.000021  -0.000045   0.000104  -0.000822
   81  H  8  Y   -0.000001  -0.000005  -0.000001   0.000012  -0.000370
   82  H  8  Z   -0.000002  -0.000002   0.000019  -0.000179   0.000357
   83  H  9  S    0.000001  -0.000173  -0.000013   0.000022   0.008645
   84  H  9  S    0.000014  -0.000342  -0.000571   0.002933   0.003489
   85  H  9  X    0.000001  -0.000032   0.000081   0.000005  -0.000833
   86  H  9  Y    0.000006   0.000008   0.000005  -0.000201   0.000338
   87  H  9  Z    0.000008  -0.000023  -0.000013   0.000099  -0.001015
   88  O 10  S    0.994602  -0.000137  -0.000023  -0.000022  -0.201282
   89  O 10  S    0.020974   0.000133  -0.000177  -0.000167   0.447166
   90  O 10  X   -0.000054  -0.000004   0.000054  -0.000042  -0.003003
   91  O 10  Y    0.000372   0.000176  -0.000045  -0.000037   0.037666
   92  O 10  Z    0.001339   0.000018  -0.000073  -0.000078   0.074157
   93  O 10  S    0.004964   0.001932   0.000369   0.000276   0.438468
   94  O 10  X    0.000044  -0.000003  -0.000106   0.000036  -0.001739
   95  O 10  Y   -0.000751   0.000324   0.000135  -0.000068   0.037595
   96  O 10  Z   -0.000832   0.000304   0.000391   0.000457   0.037303
   97  O 10  S   -0.002202   0.002811   0.001604   0.001249  -0.024815
   98  O 10  X   -0.000026  -0.000043  -0.000150   0.000162   0.000127
   99  O 10  Y   -0.000070   0.001752   0.000319   0.000359  -0.012073
  100  O 10  Z    0.000456   0.000196   0.000663   0.000523  -0.000672
  101  O 10 XX   -0.004060   0.000036  -0.000090  -0.000083  -0.002404
  102  O 10 YY   -0.004414  -0.000603  -0.000039  -0.000044   0.013701
  103  O 10 ZZ   -0.004121  -0.000034  -0.000050  -0.000047   0.005693
  104  O 10 XY    0.000009   0.000017  -0.000035   0.000038  -0.000344
  105  O 10 XZ    0.000006   0.000008  -0.000130   0.000100  -0.000383
  106  O 10 YZ   -0.000144  -0.000209   0.000056   0.000035   0.004625
  107  H 11  S   -0.000009   0.000154  -0.000133  -0.000111   0.027148
  108  H 11  S   -0.000016   0.002570  -0.000392  -0.000696   0.013161
  109  H 11  X    0.000000  -0.000006  -0.000037   0.000029   0.000155
  110  H 11  Y    0.000052   0.000114  -0.000003   0.000010  -0.003452
  111  H 11  Z   -0.000004  -0.000130   0.000044   0.000037   0.003122
  112  H 12  S    0.000221  -0.000043  -0.000088  -0.000075   0.129733
  113  H 12  S   -0.000475   0.000209  -0.000813  -0.001221   0.005013
  114  H 12  X   -0.000008   0.000001   0.000003  -0.000028   0.000551
  115  H 12  Y   -0.000143   0.000212  -0.000038  -0.000085   0.014102
  116  H 12  Z    0.000251   0.000048  -0.000004   0.000010  -0.017661

                      6          7          8          9         10
                   -1.0442    -0.9428    -0.8162    -0.6617    -0.6439
                     A          A          A          A          A   
    1  C  1  S   -0.120940  -0.000916  -0.116944  -0.054433   0.009208
    2  C  1  S    0.231604   0.002230   0.235261   0.102703  -0.017027
    3  C  1  X   -0.001390   0.161994  -0.002755   0.000050   0.019381
    4  C  1  Y    0.069341   0.004328  -0.000864   0.032050  -0.294662
    5  C  1  Z    0.065000  -0.003351  -0.140817   0.217174   0.068732
    6  C  1  S    0.201390   0.000261   0.243361   0.176112  -0.057731
    7  C  1  X    0.001026   0.025891  -0.001535   0.003013   0.006010
    8  C  1  Y    0.008642  -0.000072   0.021888  -0.005858  -0.120642
    9  C  1  Z    0.023083  -0.001474  -0.036991   0.121905   0.057499
   10  C  1  S   -0.152780  -0.014009  -0.233113   0.143525  -0.061143
   11  C  1  X    0.001370   0.011254  -0.003210   0.008670   0.000264
   12  C  1  Y    0.003489  -0.000454   0.004779   0.000868   0.005854
   13  C  1  Z   -0.029801  -0.004038  -0.048349   0.047566  -0.002480
   14  C  1 XX    0.011862   0.000394  -0.010216   0.006080  -0.003495
   15  C  1 YY   -0.011523   0.000224   0.006749  -0.006665   0.017790
   16  C  1 ZZ    0.003521  -0.000508   0.002220  -0.002175  -0.009569
   17  C  1 XY    0.000645   0.004300  -0.000706   0.000517  -0.000860
   18  C  1 XZ   -0.000255   0.016083   0.000241  -0.000027  -0.000406
   19  C  1 YZ   -0.000270   0.000372  -0.000492  -0.007553   0.015505
   20  C  2  S   -0.112538   0.137997   0.067177   0.024190  -0.006189
   21  C  2  S    0.210823  -0.256931  -0.125753  -0.039357   0.013706
   22  C  2  X    0.051004   0.015345   0.076267   0.196106  -0.033012
   23  C  2  Y   -0.001404   0.004802  -0.008632  -0.054163  -0.163642
   24  C  2  Z   -0.023599   0.005811  -0.086953  -0.006839   0.073501
   25  C  2  S    0.172551  -0.262748  -0.150990  -0.096313   0.012655
   26  C  2  X    0.007488  -0.001848   0.020238   0.063180  -0.016783
   27  C  2  Y    0.002351   0.003147  -0.003938  -0.014970  -0.071706
   28  C  2  Z   -0.005335   0.003331  -0.027895   0.004523   0.025094
   29  C  2  S    0.073886   0.025543   0.094358  -0.052284   0.017761
   30  C  2  X    0.016387   0.008270   0.022341  -0.006627   0.002442
   31  C  2  Y   -0.006906  -0.000117  -0.007530   0.000842  -0.006097
   32  C  2  Z   -0.008167  -0.003488  -0.011031  -0.001915  -0.002533
   33  C  2 XX    0.005634   0.001028   0.006309   0.006580  -0.000408
   34  C  2 YY   -0.002792   0.000246  -0.004763  -0.004504  -0.003940
   35  C  2 ZZ   -0.000119  -0.000439   0.001869  -0.000956   0.005036
   36  C  2 XY   -0.001158   0.000193  -0.002058  -0.004775  -0.003325
   37  C  2 XZ   -0.005993   0.000576  -0.008845  -0.010634   0.004310
   38  C  2 YZ    0.000424  -0.000305   0.002889  -0.003373  -0.005402
   39  H  3  S    0.066409  -0.096192  -0.090364  -0.003448   0.099364
   40  H  3  S    0.018852  -0.031644  -0.039235   0.001954   0.078222
   41  H  3  X    0.000743   0.000217   0.000534   0.003415   0.000332
   42  H  3  Y    0.003608  -0.004884  -0.003948  -0.001725   0.001407
   43  H  3  Z   -0.005770   0.007840   0.005249   0.000118  -0.005186
   44  H  4  S    0.061169  -0.103862  -0.060169  -0.105935   0.022632
   45  H  4  S    0.012999  -0.032464  -0.024085  -0.074007   0.014939
   46  H  4  X    0.005511  -0.007922  -0.003136  -0.003763   0.001059
   47  H  4  Y    0.001619  -0.002562  -0.001498  -0.002942  -0.002000
   48  H  4  Z    0.003187  -0.005153  -0.004029  -0.004125   0.001877
   49  H  5  S    0.069690  -0.094897  -0.072127  -0.062922  -0.079111
   50  H  5  S    0.017344  -0.030606  -0.032049  -0.046296  -0.056392
   51  H  5  X    0.001275  -0.000304   0.000155   0.002499  -0.001475
   52  H  5  Y   -0.006792   0.008835   0.005835   0.003661   0.002684
   53  H  5  Z   -0.001993   0.002460   0.000608   0.001140   0.002951
   54  C  6  S   -0.110924  -0.138838   0.068226   0.023081  -0.004784
   55  C  6  S    0.208430   0.258596  -0.128410  -0.035563   0.009886
   56  C  6  X   -0.051116   0.015694  -0.079998  -0.187146   0.037688
   57  C  6  Y   -0.003547  -0.004154  -0.013729  -0.064055  -0.164080
   58  C  6  Z   -0.022405  -0.008177  -0.083383   0.001818   0.056720
   59  C  6  S    0.167014   0.264311  -0.150316  -0.100999   0.014104
   60  C  6  X   -0.007941  -0.004343  -0.022172  -0.060712   0.012904
   61  C  6  Y    0.003531  -0.000877  -0.007508  -0.015617  -0.072046
   62  C  6  Z   -0.003895  -0.003577  -0.024836   0.010337   0.021848
   63  C  6  S    0.067576  -0.013989   0.109883  -0.089794   0.026803
   64  C  6  X   -0.015678   0.005531  -0.027282   0.015120  -0.006860
   65  C  6  Y   -0.006727   0.000574  -0.010820   0.004834  -0.007301
   66  C  6  Z   -0.006043   0.002992  -0.010778   0.004392  -0.000601
   67  C  6 XX    0.006072  -0.000868   0.006562   0.007274  -0.002754
   68  C  6 YY   -0.002884  -0.000244  -0.005393  -0.001288   0.004067
   69  C  6 ZZ   -0.000307   0.000516   0.002014  -0.004373  -0.001349
   70  C  6 XY    0.001576   0.000421   0.003716   0.002030   0.002061
   71  C  6 XZ    0.005548   0.000912   0.008139   0.011188   0.001772
   72  C  6 YZ    0.001089  -0.000065   0.001997   0.000788  -0.006940
   73  H  7  S    0.069576   0.092663  -0.080574  -0.039283  -0.060791
   74  H  7  S    0.016523   0.028961  -0.036993  -0.029017  -0.045164
   75  H  7  X    0.000021   0.001407  -0.001263  -0.003053   0.000696
   76  H  7  Y   -0.005710  -0.007295   0.005439   0.001385   0.000952
   77  H  7  Z   -0.004198  -0.005290   0.002876   0.001799   0.003664
   78  H  8  S    0.061987   0.104176  -0.058196  -0.110804  -0.018591
   79  H  8  S    0.014841   0.035190  -0.021929  -0.072364  -0.009851
   80  H  8  X   -0.005295  -0.007379   0.002638   0.003484   0.001381
   81  H  8  Y   -0.001171  -0.001801   0.000657   0.000341  -0.002408
   82  H  8  Z    0.003840   0.006306  -0.004480  -0.005137   0.000232
   83  H  9  S    0.062510   0.099494  -0.086946  -0.016671   0.107187
   84  H  9  S    0.018746   0.034999  -0.042043  -0.003001   0.079032
   85  H  9  X   -0.002486  -0.002548   0.001509  -0.002907  -0.002469
   86  H  9  Y    0.004938   0.007113  -0.005508  -0.002658   0.003365
   87  H  9  Z   -0.003735  -0.005626   0.003146   0.000701  -0.003642
   88  O 10  S    0.063303  -0.000106   0.020278   0.047319   0.014185
   89  O 10  S   -0.141259   0.000183  -0.045665  -0.112370  -0.032634
   90  O 10  X   -0.000184   0.044217  -0.002376  -0.002155   0.014252
   91  O 10  Y    0.083277   0.002535   0.243562  -0.106491   0.329893
   92  O 10  Z   -0.007447  -0.001166  -0.088862   0.322368   0.030571
   93  O 10  S   -0.180237   0.000403  -0.059380  -0.192692  -0.048895
   94  O 10  X    0.000030   0.022209  -0.001536  -0.000940   0.010081
   95  O 10  Y    0.033333   0.001242   0.133624  -0.065956   0.205822
   96  O 10  Z   -0.009238  -0.000154  -0.044773   0.191437   0.016888
   97  O 10  S   -0.004027   0.000788   0.013470  -0.034556  -0.008480
   98  O 10  X    0.000073  -0.003304  -0.000298   0.000807   0.000028
   99  O 10  Y   -0.005507  -0.000565  -0.010061   0.014895   0.005646
  100  O 10  Z   -0.003634   0.000514   0.002284  -0.000616  -0.008042
  101  O 10 XX   -0.000218  -0.000179  -0.000943  -0.007637  -0.002487
  102  O 10 YY    0.005220   0.000227   0.016005  -0.010630   0.009396
  103  O 10 ZZ   -0.002056  -0.000062  -0.010433   0.020142  -0.004190
  104  O 10 XY   -0.000320   0.002611  -0.000821   0.000244  -0.000175
  105  O 10 XZ    0.000052   0.002560   0.000101  -0.000787   0.000727
  106  O 10 YZ    0.006648   0.000127   0.012689   0.000837   0.021804
  107  H 11  S    0.074035   0.000524   0.150718  -0.039726  -0.144015
  108  H 11  S    0.026002   0.001348   0.079746  -0.019949  -0.076203
  109  H 11  X    0.000241   0.001847   0.000424  -0.000162   0.000015
  110  H 11  Y   -0.003236   0.000036  -0.006572   0.001672   0.001466
  111  H 11  Z    0.006705   0.000058   0.009275   0.000477  -0.006914
  112  H 12  S   -0.065576  -0.002060  -0.133350   0.155951  -0.111727
  113  H 12  S   -0.006014  -0.000085  -0.052860   0.094928  -0.053560
  114  H 12  X   -0.000262   0.001545  -0.000561   0.000531   0.000072
  115  H 12  Y   -0.004067  -0.000119  -0.005206   0.010269   0.001747
  116  H 12  Z    0.008436   0.000198   0.012792  -0.008684   0.012071

                     11         12         13         14         15
                   -0.6014    -0.5787    -0.5496    -0.5147    -0.5081
                     A          A          A          A          A   
    1  C  1  S    0.000255  -0.009586   0.000341   0.008144  -0.001354
    2  C  1  S   -0.001214   0.013670  -0.000459  -0.011796   0.004282
    3  C  1  X    0.266678   0.016240  -0.068455   0.020370   0.144930
    4  C  1  Y    0.019420   0.032505  -0.012264  -0.196869   0.015743
    5  C  1  Z    0.002811  -0.086820   0.005733   0.040795   0.010946
    6  C  1  S    0.004965   0.053094  -0.002621  -0.075750   0.000393
    7  C  1  X    0.107220   0.008102  -0.037918   0.013543   0.064564
    8  C  1  Y    0.007135  -0.003496   0.004456  -0.081971   0.008433
    9  C  1  Z    0.004015  -0.024375   0.008719   0.054876  -0.001130
   10  C  1  S    0.006826   0.162869  -0.006739  -0.131021  -0.005392
   11  C  1  X   -0.001331   0.007046  -0.009607   0.009999  -0.026854
   12  C  1  Y   -0.002794  -0.008489   0.005800   0.013016   0.001135
   13  C  1  Z   -0.001865   0.047428  -0.002028  -0.008761  -0.003405
   14  C  1 XX    0.000314   0.008526   0.000490  -0.003593   0.002516
   15  C  1 YY   -0.001293  -0.000925   0.000756   0.026247  -0.002323
   16  C  1 ZZ    0.000606  -0.007751  -0.001412  -0.018107  -0.000275
   17  C  1 XY   -0.010053  -0.000091  -0.013963   0.000389  -0.001552
   18  C  1 XZ    0.006878   0.000799   0.001436  -0.000464   0.010192
   19  C  1 YZ    0.000515  -0.018497   0.001213   0.015381   0.000260
   20  C  2  S   -0.011423  -0.003167  -0.001226   0.000939   0.005254
   21  C  2  S    0.020249   0.006925   0.007646  -0.002575  -0.010003
   22  C  2  X   -0.059351  -0.161884  -0.016643  -0.054802  -0.229618
   23  C  2  Y    0.140088  -0.096732   0.244141   0.197656  -0.138247
   24  C  2  Z    0.200159  -0.152060  -0.190969  -0.066156  -0.130664
   25  C  2  S    0.025997   0.003668  -0.011262   0.002593  -0.014124
   26  C  2  X   -0.021099  -0.093926  -0.022006  -0.026340  -0.128312
   27  C  2  Y    0.077454  -0.051454   0.135460   0.111464  -0.069363
   28  C  2  Z    0.093188  -0.081996  -0.096976  -0.040656  -0.075867
   29  C  2  S   -0.038517  -0.057329  -0.031667   0.068760  -0.069809
   30  C  2  X   -0.015271  -0.019271  -0.009444   0.012151  -0.030655
   31  C  2  Y    0.012973   0.000589   0.010620   0.001201   0.000140
   32  C  2  Z    0.010513  -0.006950  -0.001519  -0.008845   0.003652
   33  C  2 XX   -0.010599   0.007269   0.005566  -0.001016   0.013887
   34  C  2 YY    0.013459  -0.009438   0.007792   0.011413  -0.012827
   35  C  2 ZZ   -0.002478   0.001653  -0.011248  -0.011073   0.000137
   36  C  2 XY    0.000458   0.005444  -0.000228  -0.002328   0.008566
   37  C  2 XZ    0.004312   0.008805  -0.000122   0.002368   0.016849
   38  C  2 YZ   -0.003651   0.001696   0.017879   0.014837   0.000324
   39  H  3  S    0.067933  -0.043985  -0.200945  -0.125681  -0.029675
   40  H  3  S    0.057728  -0.032858  -0.166141  -0.115075  -0.021854
   41  H  3  X   -0.000967  -0.002559  -0.000252  -0.001300  -0.003545
   42  H  3  Y    0.004719  -0.003461  -0.003189  -0.001043  -0.003030
   43  H  3  Z   -0.001190  -0.000127   0.008092   0.004927  -0.000700
   44  H  4  S   -0.049514   0.156919   0.038456   0.018779   0.202597
   45  H  4  S   -0.030445   0.110089   0.032242   0.016768   0.178430
   46  H  4  X   -0.003814   0.006050   0.001709   0.000405   0.006064
   47  H  4  Y    0.001593   0.001342   0.004260   0.003213   0.001491
   48  H  4  Z    0.001958   0.003219  -0.001797  -0.000272   0.005040
   49  H  5  S    0.132355  -0.080682   0.131353   0.132319  -0.114013
   50  H  5  S    0.096551  -0.068495   0.109079   0.119768  -0.101494
   51  H  5  X   -0.000037  -0.003253   0.000683  -0.000145  -0.003698
   52  H  5  Y   -0.006788   0.003269  -0.004329  -0.004428   0.004787
   53  H  5  Z    0.000366  -0.001064  -0.005150  -0.002838  -0.000176
   54  C  6  S    0.012859  -0.001055   0.000774   0.000638  -0.007188
   55  C  6  S   -0.020760   0.003112  -0.003021   0.000931   0.012319
   56  C  6  X   -0.091166   0.156063   0.005275   0.019793  -0.234335
   57  C  6  Y   -0.118502  -0.121722  -0.229534   0.222641   0.104594
   58  C  6  Z   -0.176910  -0.195149   0.188525  -0.083777   0.111823
   59  C  6  S   -0.042396  -0.005897  -0.002248  -0.007758   0.029299
   60  C  6  X   -0.033307   0.083317  -0.004734   0.016401  -0.134539
   61  C  6  Y   -0.060418  -0.056230  -0.126596   0.129255   0.049425
   62  C  6  Z   -0.083562  -0.098404   0.096427  -0.055879   0.064553
   63  C  6  S    0.028359  -0.071555   0.028228   0.018187   0.070589
   64  C  6  X   -0.014317   0.018141  -0.008494   0.000660  -0.028013
   65  C  6  Y   -0.008166   0.004325  -0.011863   0.005907  -0.003129
   66  C  6  Z   -0.007405  -0.003133   0.004397  -0.007104  -0.001962
   67  C  6 XX    0.008102   0.005720  -0.007915   0.002072  -0.007031
   68  C  6 YY   -0.008846  -0.010122   0.009363  -0.001139   0.007288
   69  C  6 ZZ    0.001139   0.003394  -0.002250  -0.000212  -0.002029
   70  C  6 XY    0.005584   0.003790  -0.006898   0.006538  -0.001001
   71  C  6 XZ    0.007557  -0.005848   0.009651  -0.010171   0.013756
   72  C  6 YZ   -0.003102  -0.013570  -0.013115   0.016768   0.015359
   73  H  7  S   -0.129059  -0.155321  -0.053715   0.098712   0.131682
   74  H  7  S   -0.093553  -0.130908  -0.041215   0.094583   0.120989
   75  H  7  X   -0.002352   0.002195  -0.000206   0.000780  -0.002107
   76  H  7  Y    0.005679   0.006178  -0.000511  -0.001192  -0.005139
   77  H  7  Z    0.002854   0.002799   0.004801  -0.004628  -0.003164
   78  H  8  S    0.003862   0.145659  -0.108953   0.074581  -0.158256
   79  H  8  S   -0.000052   0.109828  -0.087925   0.061916  -0.138283
   80  H  8  X   -0.001688  -0.005234   0.005313  -0.003166   0.003417
   81  H  8  Y   -0.001930  -0.003415  -0.002460   0.002598   0.003134
   82  H  8  Z   -0.002891   0.003151  -0.001277   0.001904  -0.004445
   83  H  9  S   -0.033512   0.021019   0.197165  -0.158496  -0.049609
   84  H  9  S   -0.023956   0.021791   0.164717  -0.135920  -0.048746
   85  H  9  X   -0.000941   0.001811  -0.003918   0.003027  -0.002573
   86  H  9  Y   -0.004069  -0.001323   0.006092  -0.004047  -0.001229
   87  H  9  Z   -0.001509  -0.004124  -0.004538   0.003561   0.003455
   88  O 10  S   -0.004698   0.037164   0.000388   0.014142  -0.000977
   89  O 10  S    0.011537  -0.087152  -0.003405  -0.037792   0.001894
   90  O 10  X    0.332593   0.013843   0.063297  -0.001568   0.249801
   91  O 10  Y   -0.008255  -0.071654   0.014622   0.237739  -0.016678
   92  O 10  Z   -0.019002   0.236195   0.009036   0.257296  -0.006455
   93  O 10  S    0.016990  -0.156671   0.004920  -0.049341   0.005705
   94  O 10  X    0.223714   0.009582   0.046813  -0.002650   0.179226
   95  O 10  Y   -0.005289  -0.053821   0.014698   0.173722  -0.010443
   96  O 10  Z   -0.012789   0.148861   0.009059   0.181114  -0.003406
   97  O 10  S    0.006075  -0.090947   0.017908   0.039007   0.006669
   98  O 10  X    0.009162   0.000650   0.003255  -0.000222   0.023968
   99  O 10  Y   -0.000890  -0.002005   0.002688   0.025091  -0.001830
  100  O 10  Z    0.003423  -0.007132   0.004126   0.019906   0.000855
  101  O 10 XX   -0.000188  -0.003810  -0.001468  -0.009558  -0.000197
  102  O 10 YY    0.000640  -0.006174  -0.000397   0.001987  -0.000415
  103  O 10 ZZ   -0.000584   0.013533  -0.000622   0.007821  -0.000174
  104  O 10 XY    0.010530   0.000735   0.000209  -0.000363   0.006347
  105  O 10 XZ    0.014774   0.000229   0.003422  -0.000770   0.010354
  106  O 10 YZ   -0.000708  -0.003703   0.001292   0.016511  -0.000493
  107  H 11  S   -0.000710   0.071544  -0.006685  -0.111223  -0.002256
  108  H 11  S    0.001771   0.064931  -0.007919  -0.083167  -0.006680
  109  H 11  X    0.004145   0.000493  -0.001940   0.000053   0.001876
  110  H 11  Y    0.000243  -0.001700  -0.000151   0.001260   0.000250
  111  H 11  Z   -0.000078   0.003208  -0.000386  -0.004077  -0.000023
  112  H 12  S   -0.007511   0.117136  -0.003692   0.019671  -0.000741
  113  H 12  S   -0.005973   0.098262  -0.005406  -0.001071  -0.003035
  114  H 12  X    0.010387   0.000867   0.002967   0.000058   0.007609
  115  H 12  Y   -0.000942   0.007341   0.000048   0.009459  -0.000629
  116  H 12  Z    0.000347  -0.005421   0.000260   0.002190  -0.000152

                     16         17         18         19         20
                   -0.4700    -0.4355     0.0842     0.0940     0.0980
                     A          A          A          A          A   
    1  C  1  S   -0.003831   0.000318  -0.001562   0.000784  -0.020667
    2  C  1  S    0.015536  -0.001806   0.016989  -0.002893   0.054256
    3  C  1  X   -0.003249  -0.266859   0.000494   0.062304   0.004140
    4  C  1  Y    0.004173  -0.006424  -0.028699   0.000108   0.038474
    5  C  1  Z    0.331242   0.004019   0.067812   0.001979  -0.050160
    6  C  1  S    0.008221   0.003965  -0.085978  -0.005288   0.124033
    7  C  1  X   -0.003239  -0.134501   0.004467  -0.046330  -0.017959
    8  C  1  Y   -0.016896  -0.008011  -0.095656  -0.020237  -0.000872
    9  C  1  Z    0.151140   0.007300  -0.086984   0.003080  -0.113756
   10  C  1  S    0.001343   0.067187   1.701435  -0.745976  15.023424
   11  C  1  X   -0.000864  -0.049824  -0.042778   3.964289   0.259732
   12  C  1  Y   -0.003663  -0.002479  -0.550492   0.043038   0.130595
   13  C  1  Z    0.008124   0.014787  -0.749409  -0.307593   3.607131
   14  C  1 XX    0.027570   0.000346  -0.003842   0.000104   0.000213
   15  C  1 YY   -0.020483  -0.000764   0.001056   0.000257   0.000883
   16  C  1 ZZ   -0.007049   0.000220   0.001718  -0.000034  -0.000046
   17  C  1 XY    0.002267  -0.022843  -0.000412   0.000786  -0.000131
   18  C  1 XZ   -0.002051  -0.027494   0.000345  -0.004276  -0.000697
   19  C  1 YZ    0.019564  -0.001068  -0.002295  -0.000555   0.006200
   20  C  2  S   -0.019257  -0.025348   0.033271  -0.021894   0.002003
   21  C  2  S    0.038886   0.057323  -0.076278   0.061558  -0.001052
   22  C  2  X    0.091005   0.208087   0.039501  -0.053527  -0.011705
   23  C  2  Y   -0.022725  -0.079514  -0.011398  -0.007070   0.067473
   24  C  2  Z   -0.202553  -0.090429  -0.039062   0.005853  -0.036056
   25  C  2  S    0.075302   0.075826  -0.063700   0.018439  -0.025678
   26  C  2  X    0.054279   0.115512   0.119714  -0.094629  -0.053911
   27  C  2  Y   -0.006920  -0.020632  -0.039558   0.045988   0.022113
   28  C  2  Z   -0.105803  -0.046231  -0.080549   0.121649  -0.032215
   29  C  2  S   -0.015277  -0.111386   0.263609   7.627316  -6.512142
   30  C  2  X   -0.001775  -0.009533  -0.423291   2.722557  -1.671528
   31  C  2  Y    0.002972   0.010815   0.312805  -0.391749  -0.092216
   32  C  2  Z   -0.005265   0.011957   0.580671  -1.468815   0.971212
   33  C  2 XX    0.017779   0.003901   0.008407  -0.002876   0.002498
   34  C  2 YY   -0.008855  -0.007018  -0.000021   0.005088   0.001015
   35  C  2 ZZ   -0.009437   0.004731   0.000461  -0.001400   0.000188
   36  C  2 XY   -0.001038  -0.003843  -0.002374   0.002317   0.001786
   37  C  2 XZ   -0.001329  -0.012737  -0.001103   0.006511  -0.003215
   38  C  2 YZ    0.008049  -0.002810   0.002184  -0.001291   0.001157
   39  H  3  S   -0.108019   0.007195  -0.013133   0.001938  -0.006394
   40  H  3  S   -0.120223   0.018567  -0.188254  -0.061752  -0.296827
   41  H  3  X    0.000490   0.003211  -0.000288   0.001540  -0.001816
   42  H  3  Y   -0.003448  -0.001040  -0.003401  -0.000602  -0.003499
   43  H  3  Z    0.001913  -0.001735   0.006747  -0.003296   0.006558
   44  H  4  S    0.054111  -0.056606   0.008856   0.018776  -0.004251
   45  H  4  S    0.062543  -0.055776  -0.121765   0.165917  -0.020963
   46  H  4  X    0.003727   0.000568  -0.006042   0.007469  -0.000555
   47  H  4  Y    0.000626  -0.001533  -0.001011   0.000636   0.000739
   48  H  4  Z   -0.001233  -0.002506  -0.002943   0.002108   0.000961
   49  H  5  S   -0.043584  -0.060844  -0.000348   0.007483   0.009981
   50  H  5  S   -0.046305  -0.076373  -0.150122  -0.074679   0.122775
   51  H  5  X    0.000826   0.003177  -0.001772   0.001770  -0.000215
   52  H  5  Y    0.002060   0.002495   0.006517  -0.000596  -0.004348
   53  H  5  Z   -0.002916  -0.000443   0.002585  -0.002183  -0.000861
   54  C  6  S   -0.018103   0.025936   0.032226   0.022757   0.006089
   55  C  6  S    0.035688  -0.057064  -0.075601  -0.061098  -0.006850
   56  C  6  X   -0.072964   0.214468  -0.038261  -0.052711  -0.004481
   57  C  6  Y   -0.037990   0.098236  -0.018062  -0.018483   0.066704
   58  C  6  Z   -0.208944   0.069835  -0.034738  -0.000252  -0.028329
   59  C  6  S    0.075449  -0.087282  -0.048703  -0.024609  -0.051502
   60  C  6  X   -0.037591   0.126451  -0.110274  -0.120078   0.047108
   61  C  6  Y   -0.020888   0.038721  -0.028482  -0.004409   0.023232
   62  C  6  Z   -0.118825   0.027247  -0.066406  -0.101522  -0.104534
   63  C  6  S   -0.015055   0.046705   0.491564  -6.925042  -7.550432
   64  C  6  X    0.007227   0.007235   0.326767   2.538937   2.175653
   65  C  6  Y   -0.002055  -0.002585   0.343169   0.670056   0.122666
   66  C  6  Z   -0.012172  -0.008487   0.521904   1.326130   1.018400
   67  C  6 XX    0.017583  -0.003970   0.007579   0.002822   0.005131
   68  C  6 YY   -0.012632   0.003472   0.000032  -0.004004  -0.002815
   69  C  6 ZZ   -0.005505  -0.001001   0.000967   0.000799   0.002915
   70  C  6 XY    0.007865  -0.002325   0.003639   0.002267   0.000462
   71  C  6 XZ   -0.002776  -0.015194  -0.000133   0.006272   0.002673
   72  C  6 YZ   -0.000755   0.001148   0.001293   0.002980   0.001135
   73  H  7  S   -0.094079   0.044485  -0.002752  -0.003583   0.005135
   74  H  7  S   -0.088153   0.057285  -0.212861   0.017700   0.118055
   75  H  7  X   -0.001630   0.003770   0.000160   0.001764   0.001388
   76  H  7  Y    0.003862  -0.000621   0.006578   0.001792  -0.003497
   77  H  7  Z   -0.000496  -0.000707   0.005558   0.003713  -0.001058
   78  H  8  S    0.077760   0.076571   0.011957  -0.019076  -0.002270
   79  H  8  S    0.073485   0.074727  -0.123395  -0.130729  -0.005282
   80  H  8  X   -0.004007   0.000237   0.005785   0.006496   0.001111
   81  H  8  Y   -0.001264   0.000953   0.001119   0.000811   0.001230
   82  H  8  Z    0.000035   0.004046  -0.003565  -0.002724   0.001644
   83  H  9  S   -0.073435  -0.008984  -0.011559  -0.005666  -0.009267
   84  H  9  S   -0.083922  -0.012613  -0.160198   0.105247  -0.227789
   85  H  9  X    0.001096   0.003202   0.001972   0.001638   0.002533
   86  H  9  Y   -0.003125   0.000496  -0.004497   0.000666  -0.003832
   87  H  9  Z   -0.000914   0.000670   0.004029   0.001804   0.005534
   88  O 10  S   -0.028711  -0.000994   0.010176   0.000126   0.004862
   89  O 10  S    0.069353   0.003126  -0.045404   0.002626  -0.040189
   90  O 10  X   -0.013385   0.481819   0.001633  -0.036644  -0.000914
   91  O 10  Y   -0.090188   0.004639   0.016002  -0.004760   0.033594
   92  O 10  Z   -0.272631   0.010484  -0.023468   0.003593  -0.045128
   93  O 10  S    0.126394   0.001739   0.024686  -0.016338   0.095129
   94  O 10  X   -0.010797   0.370316   0.001789  -0.011784   0.002112
   95  O 10  Y   -0.065311   0.002177   0.016296  -0.011221   0.018693
   96  O 10  Z   -0.197025   0.006600  -0.059558   0.002435  -0.024641
   97  O 10  S    0.046293  -0.003893  -0.748003   0.132122  -1.592713
   98  O 10  X   -0.004134   0.073846   0.005414  -0.114497   0.013301
   99  O 10  Y   -0.012872   0.000807  -0.246074   0.002274  -0.120253
  100  O 10  Z   -0.025821   0.001842   0.210178   0.076539  -0.581813
  101  O 10 XX    0.009611  -0.000676  -0.004888   0.000711  -0.007700
  102  O 10 YY   -0.001347   0.000269  -0.008742   0.000267  -0.005538
  103  O 10 ZZ   -0.012060   0.000981  -0.005800   0.001189  -0.010677
  104  O 10 XY   -0.000074   0.002990   0.000102   0.002621   0.000512
  105  O 10 XZ   -0.000327   0.015426   0.000156  -0.001441  -0.000129
  106  O 10 YZ    0.000784   0.000332   0.003238  -0.000370  -0.003992
  107  H 11  S   -0.202850   0.001683  -0.011671   0.001620  -0.013969
  108  H 11  S   -0.204836   0.003228  -0.167226   0.005824  -0.054352
  109  H 11  X   -0.000410  -0.004011  -0.000331   0.004805   0.000955
  110  H 11  Y    0.006406  -0.000089   0.003623   0.000641  -0.004187
  111  H 11  Z   -0.005978   0.000253  -0.004688  -0.000133   0.005190
  112  H 12  S   -0.094304  -0.003390   0.003825   0.001036   0.005409
  113  H 12  S   -0.092805  -0.003618  -0.034347  -0.047802   0.206480
  114  H 12  X   -0.000721   0.016090  -0.000122  -0.000834  -0.000409
  115  H 12  Y   -0.009307  -0.000014  -0.000472  -0.000028  -0.005912
  116  H 12  Z    0.000471   0.000708   0.002779  -0.000272   0.006402

                     21         22         23         24         25
                    0.1081     0.1297     0.1391     0.1397     0.1420
                     A          A          A          A          A   
    1  C  1  S   -0.010158  -0.006838  -0.003542  -0.013363  -0.004406
    2  C  1  S    0.074154   0.019205   0.008011   0.024802   0.011215
    3  C  1  X   -0.004926   0.002516  -0.007225  -0.013758   0.033903
    4  C  1  Y    0.052749   0.018556  -0.005971  -0.023244  -0.009133
    5  C  1  Z   -0.010716   0.022307  -0.019651  -0.052476  -0.023296
    6  C  1  S   -0.231653   0.075528   0.023468   0.121607   0.023621
    7  C  1  X    0.003413  -0.009731  -0.011184  -0.027010   0.096057
    8  C  1  Y    0.200432  -0.059205  -0.055123  -0.148974  -0.052723
    9  C  1  Z    0.048839   0.017664  -0.022468  -0.071352  -0.025999
   10  C  1  S    7.684198  14.163530   2.387538   8.576134   2.989528
   11  C  1  X   -0.025361   0.061535  -0.951262   0.218910   0.963253
   12  C  1  Y    0.929650   0.466324  -1.282082  -3.592359  -1.572941
   13  C  1  Z    1.998208   3.819129   0.739583   2.003962   0.833757
   14  C  1 XX    0.007377  -0.007921   0.001146   0.003883   0.001910
   15  C  1 YY    0.002828   0.007338  -0.000706  -0.005622  -0.002013
   16  C  1 ZZ    0.001214   0.003894   0.000776   0.003261   0.001389
   17  C  1 XY    0.000959  -0.000389  -0.004797   0.003762  -0.003608
   18  C  1 XZ    0.000225   0.000109  -0.000225   0.000161   0.000046
   19  C  1 YZ   -0.003655   0.000907  -0.000285  -0.001474  -0.000665
   20  C  2  S    0.002806   0.002203  -0.000249  -0.001168   0.000554
   21  C  2  S    0.002954  -0.008480  -0.000974   0.007669   0.002508
   22  C  2  X   -0.020191   0.026109  -0.004297  -0.021690   0.046849
   23  C  2  Y   -0.057417   0.010217   0.039248  -0.073486   0.005889
   24  C  2  Z   -0.012529   0.074823  -0.034206   0.001295   0.054225
   25  C  2  S   -0.030241  -0.019134   0.005964  -0.028048  -0.006105
   26  C  2  X   -0.017265   0.041647  -0.026822  -0.054908  -0.003218
   27  C  2  Y    0.006015  -0.037754   0.042991  -0.056625  -0.012166
   28  C  2  Z   -0.017594   0.129540  -0.047821   0.019417   0.043564
   29  C  2  S   -4.554282  -6.609329  -1.484747  -3.676997   0.071919
   30  C  2  X   -1.502459  -2.477640   0.042110  -0.678325  -0.282704
   31  C  2  Y    0.740830   0.277987  -0.512622   2.570647   0.205707
   32  C  2  Z    1.004523   0.078809   0.727080   0.347157  -1.648043
   33  C  2 XX    0.003735   0.003363  -0.001023  -0.002125  -0.001954
   34  C  2 YY   -0.003491   0.000868   0.003046   0.001686   0.004912
   35  C  2 ZZ    0.002616  -0.004586  -0.001667   0.001643   0.001577
   36  C  2 XY   -0.000948  -0.001278   0.003992  -0.005234  -0.000541
   37  C  2 XZ   -0.006325  -0.005466  -0.002164  -0.000561   0.004764
   38  C  2 YZ    0.000011  -0.005839   0.003635   0.003536  -0.002821
   39  H  3  S    0.006339   0.006047  -0.010152  -0.002141   0.012956
   40  H  3  S    0.116121   0.067323  -0.281584   0.060365   0.149231
   41  H  3  X   -0.003208  -0.002579  -0.002129   0.000533   0.004007
   42  H  3  Y    0.002233   0.000508  -0.003450   0.001269   0.000869
   43  H  3  Z   -0.001227  -0.003470   0.003779  -0.003626  -0.003442
   44  H  4  S   -0.001900  -0.016188   0.000586  -0.008528  -0.002824
   45  H  4  S    0.154457  -0.240430  -0.043370   0.098400  -0.280569
   46  H  4  X    0.001692  -0.006981   0.000471   0.003739  -0.005370
   47  H  4  Y    0.000637   0.000268  -0.002641   0.000424  -0.001670
   48  H  4  Z    0.004572   0.000294   0.000851   0.001444  -0.005545
   49  H  5  S   -0.023056  -0.000094   0.015597   0.008583   0.010799
   50  H  5  S   -0.203938   0.047098   0.119031  -0.197544   0.077655
   51  H  5  X   -0.002894  -0.002067   0.001876  -0.003381   0.002208
   52  H  5  Y    0.005278  -0.001788  -0.002112   0.005896  -0.000819
   53  H  5  Z    0.003022  -0.002428   0.000179   0.003825  -0.001281
   54  C  6  S    0.002084   0.002438   0.001532  -0.001667   0.000426
   55  C  6  S    0.006168  -0.008966   0.004475   0.008693   0.002657
   56  C  6  X    0.026187  -0.026826   0.007020  -0.008112   0.052123
   57  C  6  Y   -0.045804   0.019376  -0.082805  -0.007779  -0.024800
   58  C  6  Z   -0.022536   0.074170   0.040308   0.010218  -0.060082
   59  C  6  S   -0.036772  -0.013693  -0.047144  -0.014014  -0.036522
   60  C  6  X    0.026335  -0.032685   0.042154   0.070738   0.063608
   61  C  6  Y   -0.017283  -0.034639  -0.089891   0.011149  -0.006024
   62  C  6  Z    0.006091   0.092348   0.031959  -0.020986  -0.063987
   63  C  6  S   -4.330974  -6.639343  -0.433792  -3.518707  -2.480534
   64  C  6  X    1.392470   2.494650   0.166276   0.678389   0.105586
   65  C  6  Y    0.670752   0.503178   1.849063   1.219968   1.419864
   66  C  6  Z    0.921644  -0.024116  -0.903492  -0.403658   1.468841
   67  C  6 XX    0.003207   0.004730  -0.002114  -0.001993  -0.000330
   68  C  6 YY   -0.000877   0.002360   0.004929   0.004046  -0.001558
   69  C  6 ZZ    0.000666  -0.007114  -0.000448   0.001064   0.000684
   70  C  6 XY    0.000616  -0.000732   0.003551  -0.000091   0.004874
   71  C  6 XZ    0.007013   0.006389  -0.000304  -0.003072   0.003076
   72  C  6 YZ   -0.002371  -0.001784  -0.002815   0.004047   0.001686
   73  H  7  S   -0.021168  -0.000864  -0.002050   0.023040  -0.003595
   74  H  7  S   -0.155323   0.129040  -0.114559   0.095634  -0.220307
   75  H  7  X    0.002131   0.002631   0.000641  -0.000950   0.003587
   76  H  7  Y    0.004082  -0.002792   0.003397  -0.000293   0.004862
   77  H  7  Z    0.002977  -0.005095   0.001790   0.000174   0.003713
   78  H  8  S   -0.009601  -0.017599  -0.005420  -0.005133  -0.001042
   79  H  8  S    0.115624  -0.275212  -0.117845  -0.155683   0.202221
   80  H  8  X   -0.001188   0.007167   0.002455   0.002091  -0.004524
   81  H  8  Y   -0.000485   0.003229   0.002280  -0.000983  -0.000568
   82  H  8  Z    0.003684  -0.000181  -0.002109  -0.002466   0.005230
   83  H  9  S    0.013365   0.006519   0.011544  -0.004217  -0.007281
   84  H  9  S    0.104773   0.026549   0.338061  -0.008086  -0.023160
   85  H  9  X    0.002529   0.002294  -0.005414  -0.002226   0.000703
   86  H  9  Y    0.003051   0.000534   0.005099  -0.000775   0.000652
   87  H  9  Z   -0.000714  -0.001095  -0.004948  -0.002473  -0.000087
   88  O 10  S   -0.017985  -0.006083   0.006803   0.019664   0.008063
   89  O 10  S    0.081767  -0.004248  -0.029484  -0.090994  -0.035233
   90  O 10  X   -0.001070  -0.000892   0.030563  -0.023521   0.031640
   91  O 10  Y   -0.058183   0.012608   0.005672   0.004513   0.007092
   92  O 10  Z    0.010709   0.004303  -0.016820  -0.023729  -0.016499
   93  O 10  S   -0.032427   0.117874   0.011099   0.044936   0.012627
   94  O 10  X   -0.004802   0.004367   0.004345   0.004165  -0.001738
   95  O 10  Y   -0.060483  -0.002613  -0.012013  -0.040128  -0.008361
   96  O 10  Z    0.081748   0.011503  -0.026214  -0.053441  -0.027892
   97  O 10  S    1.770321  -1.158300  -0.773360  -2.281154  -0.935948
   98  O 10  X   -0.024757  -0.001817   0.325740  -0.257084   0.296768
   99  O 10  Y    0.436838  -0.123236  -0.035458  -0.137181  -0.025229
  100  O 10  Z    0.143968  -0.456636  -0.056172  -0.038516  -0.044367
  101  O 10 XX    0.007284  -0.004290  -0.003614  -0.013124  -0.005298
  102  O 10 YY    0.016488  -0.007657  -0.003534  -0.011639  -0.003373
  103  O 10 ZZ    0.012985  -0.006351  -0.004063  -0.013374  -0.004781
  104  O 10 XY   -0.000605   0.000350   0.003068  -0.002157   0.002167
  105  O 10 XZ   -0.000338  -0.000004   0.001142  -0.001392   0.002623
  106  O 10 YZ   -0.001042   0.000643  -0.001617  -0.003978  -0.001383
  107  H 11  S    0.011142   0.016494   0.001135   0.002211  -0.000935
  108  H 11  S    0.067551  -0.082944   0.058910   0.137153   0.066783
  109  H 11  X   -0.000075   0.000069   0.000974   0.000685  -0.001903
  110  H 11  Y    0.000341   0.001846  -0.001581  -0.005932  -0.002275
  111  H 11  Z    0.005848   0.000782   0.001639   0.003098   0.001534
  112  H 12  S   -0.016726  -0.014394   0.006185   0.020669   0.008493
  113  H 12  S   -0.279207   0.188209   0.024489   0.035922   0.031501
  114  H 12  X    0.000396  -0.000376  -0.001000   0.000332  -0.000022
  115  H 12  Y   -0.001208   0.001261  -0.002706  -0.006553  -0.002991
  116  H 12  Z   -0.003736  -0.000130   0.003037   0.005925   0.003226

                     26         27         28         29         30
                    0.1652     0.1833     0.1910     0.2158     0.2973
                     A          A          A          A          A   
    1  C  1  S   -0.022510   0.000958   0.018031  -0.000749   0.064339
    2  C  1  S    0.020306  -0.002030  -0.076810   0.003196  -0.076956
    3  C  1  X    0.002510  -0.008947   0.001669  -0.024825  -0.004196
    4  C  1  Y   -0.011322  -0.004087  -0.066876  -0.008618  -0.009884
    5  C  1  Z    0.017483   0.002849   0.058841  -0.002862   0.041374
    6  C  1  S    0.314003  -0.004366   0.190885  -0.014410  -1.107381
    7  C  1  X   -0.010174  -0.157089   0.029163   0.252835   0.063357
    8  C  1  Y    0.143073  -0.006866  -0.185929   0.005231  -0.279250
    9  C  1  Z    0.024036   0.003945  -0.060418   0.004455   0.281426
   10  C  1  S    4.455878   2.056494  43.884820  -1.396450  18.225377
   11  C  1  X   -0.163037   8.862915  -0.045111  11.709534  -0.057838
   12  C  1  Y   -0.762068   0.310802   2.000028   0.373467  -1.542717
   13  C  1  Z   -1.819469   0.143518   6.959887  -0.373886   3.778933
   14  C  1 XX    0.000300  -0.001111   0.004328   0.002710  -0.000290
   15  C  1 YY   -0.015490   0.000462   0.009509  -0.002421   0.013465
   16  C  1 ZZ    0.001426   0.001578   0.001664   0.000861   0.024101
   17  C  1 XY   -0.000436   0.004693   0.001159  -0.001105  -0.000480
   18  C  1 XZ   -0.000342  -0.015784   0.001289   0.006759   0.002335
   19  C  1 YZ   -0.004829  -0.000903   0.000646  -0.001325   0.006011
   20  C  2  S   -0.033072  -0.016830  -0.004490   0.037469   0.024035
   21  C  2  S    0.033211   0.038747   0.058490  -0.060253   0.003848
   22  C  2  X   -0.015697   0.020876  -0.028408   0.024986   0.039998
   23  C  2  Y    0.031018  -0.003011  -0.022553  -0.017800   0.044222
   24  C  2  Z    0.042209   0.013715  -0.043143  -0.056378  -0.015434
   25  C  2  S    0.329855   0.089517  -0.255435  -0.250811  -0.552150
   26  C  2  X    0.132845  -0.011960  -0.249498   0.070760   0.117331
   27  C  2  Y    0.083431   0.005598  -0.052661  -0.018997   0.334768
   28  C  2  Z    0.125318   0.007115   0.035611  -0.124703  -0.054654
   29  C  2  S   -2.810397   6.625011 -20.638028  23.704932  -9.114798
   30  C  2  X   -0.963342  -0.717736  -4.722066   5.600243  -2.209705
   31  C  2  Y    0.421877  -0.682686   1.093268  -1.249780   1.301487
   32  C  2  Z    1.463648  -2.386133   3.227614  -3.980264   0.952691
   33  C  2 XX   -0.003616   0.005583  -0.000732   0.002373   0.005818
   34  C  2 YY   -0.010772  -0.000340   0.011084   0.012900   0.005578
   35  C  2 ZZ   -0.007018  -0.011397   0.000781   0.006603  -0.000666
   36  C  2 XY   -0.005963  -0.000708  -0.001991  -0.001480  -0.001688
   37  C  2 XZ   -0.009054  -0.000058   0.002140  -0.002517   0.015914
   38  C  2 YZ    0.006096   0.002032  -0.005026  -0.003628   0.000322
   39  H  3  S   -0.028252  -0.026705   0.003821   0.026172  -0.011629
   40  H  3  S    0.149166   0.111403  -0.023601  -0.376135   0.296678
   41  H  3  X   -0.004403   0.000971   0.000196  -0.001622   0.010787
   42  H  3  Y    0.006575   0.001501  -0.004128  -0.009033  -0.002791
   43  H  3  Z   -0.004209  -0.005633  -0.001624   0.006147  -0.003334
   44  H  4  S   -0.019557   0.000778  -0.019419  -0.001459   0.038431
   45  H  4  S    0.295110   0.012183   0.016766  -0.542365   0.385314
   46  H  4  X    0.005145  -0.002765   0.005035  -0.006407   0.000227
   47  H  4  Y    0.002623  -0.000670   0.001496  -0.002075   0.001693
   48  H  4  Z    0.005780   0.004193   0.001011  -0.003918  -0.002422
   49  H  5  S   -0.010934  -0.000231   0.014526   0.029354   0.002024
   50  H  5  S    0.233843   0.174701   0.062209  -0.444878  -0.129301
   51  H  5  X   -0.003837   0.000395  -0.000832  -0.002399  -0.000438
   52  H  5  Y   -0.008725  -0.003648   0.001222   0.011810   0.002223
   53  H  5  Z    0.001755  -0.000893  -0.004968  -0.000571   0.000944
   54  C  6  S   -0.031485   0.016893  -0.009514  -0.039468   0.022278
   55  C  6  S    0.027784  -0.033269   0.071849   0.064003   0.012219
   56  C  6  X    0.027694   0.018169   0.005067   0.032519  -0.085197
   57  C  6  Y   -0.000560   0.000505   0.027777  -0.023177   0.015217
   58  C  6  Z    0.036923  -0.004818  -0.030228   0.047486   0.043317
   59  C  6  S    0.329476  -0.126083  -0.246489   0.285473  -0.607779
   60  C  6  X   -0.107891  -0.000401   0.216463   0.124510  -0.346500
   61  C  6  Y   -0.067257  -0.017107   0.089535  -0.072531   0.193134
   62  C  6  Z    0.130538   0.016180   0.047787   0.114594   0.355619
   63  C  6  S   -2.362364  -8.635339 -21.326067 -22.405100  -8.016320
   64  C  6  X    0.878424  -0.174468   5.215842   5.393448   1.805157
   65  C  6  Y    0.609854   0.792580   1.307865   1.380567   1.246286
   66  C  6  Z    1.399689   2.715851   3.004078   3.565704   0.875620
   67  C  6 XX   -0.002844  -0.005515  -0.000967  -0.003989   0.002385
   68  C  6 YY   -0.012193   0.002625   0.010468  -0.012501   0.002697
   69  C  6 ZZ   -0.007269   0.009923  -0.000013  -0.005066   0.005019
   70  C  6 XY    0.005457  -0.000993   0.001621   0.000709   0.003299
   71  C  6 XZ    0.008310   0.001284  -0.001827  -0.003415  -0.016470
   72  C  6 YZ    0.007447  -0.002514  -0.005556   0.004339  -0.003532
   73  H  7  S   -0.006574   0.005200  -0.005140  -0.008201  -0.016603
   74  H  7  S    0.295573  -0.156635   0.022781   0.455218  -0.321343
   75  H  7  X    0.004864   0.000588   0.001347   0.000276  -0.002224
   76  H  7  Y   -0.006926   0.003273   0.000475  -0.009815   0.001579
   77  H  7  Z   -0.001325   0.002748  -0.005821  -0.001664   0.002749
   78  H  8  S   -0.015381   0.000151  -0.012109  -0.005347   0.064745
   79  H  8  S    0.325532  -0.000731   0.092772   0.469206   0.795476
   80  H  8  X   -0.004562  -0.003430  -0.005602  -0.005032  -0.003443
   81  H  8  Y   -0.002029   0.000999   0.002820  -0.004660  -0.000148
   82  H  8  Z    0.007385  -0.003932   0.001983   0.004562  -0.000764
   83  H  9  S   -0.030915   0.020662   0.006079  -0.041127  -0.019401
   84  H  9  S    0.051648  -0.075585   0.099837   0.297559   0.007358
   85  H  9  X    0.003524   0.000232  -0.002633  -0.003617  -0.008864
   86  H  9  Y    0.007454  -0.001926  -0.001559   0.009729  -0.003457
   87  H  9  Z   -0.002744   0.003704  -0.001030  -0.004778   0.001054
   88  O 10  S   -0.002128   0.000948   0.010326   0.003204  -0.002001
   89  O 10  S   -0.030585  -0.001937  -0.024216   0.000018   0.018880
   90  O 10  X    0.002553  -0.047837   0.007856   0.028109   0.011174
   91  O 10  Y   -0.055322   0.002419   0.062140  -0.013470   0.017168
   92  O 10  Z    0.074745  -0.006517  -0.066865  -0.008986  -0.062601
   93  O 10  S    0.134838  -0.007143  -0.056778  -0.049892  -0.106445
   94  O 10  X   -0.005394   0.026636   0.003473   0.051043   0.022966
   95  O 10  Y   -0.064586   0.004561  -0.003391  -0.024193  -0.162061
   96  O 10  Z    0.108692  -0.010607  -0.109664  -0.005207  -0.215887
   97  O 10  S    0.111941  -0.064691  -2.281449   0.225336  -2.090677
   98  O 10  X    0.038419  -0.775807   0.057723  -0.053812  -0.086112
   99  O 10  Y    0.152143  -0.049456  -0.705059   0.068320   1.578134
  100  O 10  Z    0.539796   0.050407   0.156782  -0.001495  -0.355820
  101  O 10 XX   -0.016692  -0.000437  -0.000450   0.002323   0.001955
  102  O 10 YY   -0.007816   0.000258  -0.004332   0.002628  -0.016712
  103  O 10 ZZ   -0.004747   0.000324   0.003018   0.002740   0.009892
  104  O 10 XY    0.000537   0.001218  -0.000527   0.000766  -0.000430
  105  O 10 XZ   -0.000163  -0.005563   0.000226  -0.003445   0.001009
  106  O 10 YZ   -0.000532  -0.000099  -0.001728  -0.001217  -0.015833
  107  H 11  S    0.012410   0.001608   0.003043   0.003971   0.041352
  108  H 11  S    0.007796  -0.020169  -0.841822   0.016502   0.264376
  109  H 11  X    0.000105   0.008506  -0.001082  -0.004002  -0.001177
  110  H 11  Y   -0.005347   0.000620   0.011706  -0.000714  -0.001555
  111  H 11  Z   -0.003866  -0.000732  -0.013417  -0.000422  -0.005014
  112  H 12  S    0.007830   0.002737   0.015995   0.003810   0.032338
  113  H 12  S   -0.212664  -0.020690  -0.234061  -0.020862   0.926381
  114  H 12  X    0.000113  -0.002579   0.000045  -0.004602   0.000609
  115  H 12  Y   -0.000230  -0.000086  -0.006735  -0.001110   0.010753
  116  H 12  Z   -0.002799   0.000471   0.010410   0.000871   0.008791

                     31         32         33         34         35
                    0.3222     0.3281     0.3373     0.3380     0.3793
                     A          A          A          A          A   
    1  C  1  S   -0.008760   0.006565   0.014716   0.032188   0.032338
    2  C  1  S   -0.056577   0.002741  -0.040495  -0.030529  -0.032526
    3  C  1  X   -0.034447   0.039870   0.017501  -0.007778  -0.012436
    4  C  1  Y    0.094504  -0.114907   0.126794  -0.060413   0.115893
    5  C  1  Z    0.085607   0.059827   0.004202   0.002674   0.026174
    6  C  1  S    0.660597  -0.184570  -0.078799  -0.602790  -0.564713
    7  C  1  X   -0.129751   0.330961   0.226643  -0.351110  -0.370346
    8  C  1  Y   -0.349402  -0.318661   0.625560  -0.022491   0.623806
    9  C  1  Z    0.355064   0.074085   0.320680   0.210936  -0.177353
   10  C  1  S   11.345274   8.631091   5.362025  15.003319   8.548848
   11  C  1  X    1.032997   0.211713   1.352049  -1.750092   0.827960
   12  C  1  Y   -1.267539   1.631717  -1.092671   0.830203  -0.173363
   13  C  1  Z    2.968501   2.779699   1.102548   4.119341   0.589229
   14  C  1 XX   -0.025910  -0.011510   0.004406   0.014531  -0.016536
   15  C  1 YY    0.020682  -0.007551   0.007488  -0.007564   0.012583
   16  C  1 ZZ   -0.013363   0.017022  -0.016743  -0.003051   0.004633
   17  C  1 XY   -0.003000   0.004096   0.010176  -0.007012   0.000422
   18  C  1 XZ    0.006047  -0.003597  -0.006364   0.000020  -0.009194
   19  C  1 YZ    0.007945  -0.013637   0.004524  -0.006597   0.009586
   20  C  2  S    0.016644   0.006071   0.015789   0.005715   0.019865
   21  C  2  S   -0.034091  -0.030337   0.011267   0.002639  -0.009227
   22  C  2  X   -0.059305   0.056357   0.023042   0.001959   0.161882
   23  C  2  Y    0.120710  -0.117275  -0.108213  -0.005252   0.022351
   24  C  2  Z    0.015530   0.093527  -0.038258  -0.048407   0.182338
   25  C  2  S   -0.276068   0.059381  -0.507334  -0.368611  -0.520284
   26  C  2  X   -0.283683   0.419528  -0.144730  -0.096066   0.812890
   27  C  2  Y    0.576111  -0.638850  -0.713347  -0.197565   0.087527
[...]
  110  H 11  Y    0.214093  -0.417796  -0.106398   0.119722   0.007570
  111  H 11  Z   -0.516783   0.541670   0.123405  -0.141805  -0.007604
  112  H 12  S   -0.368928  -1.133964   0.470271   0.237984  -0.001374
  113  H 12  S   -0.143013  -0.739595   0.254103  -0.004196  -0.045913
  114  H 12  X   -0.008171  -0.026091   0.016731   0.005129  -0.017059
  115  H 12  Y   -0.116511  -0.665035   0.236769   0.211543  -0.012701
  116  H 12  Z    0.359199   0.821044  -0.443918  -0.270269   0.001361

                    116
                    5.1099
                     A   
    1  C  1  S   -0.413084
    2  C  1  S    2.028176
    3  C  1  X    0.000242
    4  C  1  Y   -0.003874
    5  C  1  Z    0.043540
    6  C  1  S    3.614310
    7  C  1  X    0.041255
    8  C  1  Y   -0.029594
    9  C  1  Z    0.451397
   10  C  1  S   -0.550033
   11  C  1  X    0.079419
   12  C  1  Y    0.325242
   13  C  1  Z   -0.192434
   14  C  1 XX   -1.625315
   15  C  1 YY   -1.672785
   16  C  1 ZZ   -1.698224
   17  C  1 XY    0.005896
   18  C  1 XZ   -0.010116
   19  C  1 YZ    0.070372
   20  C  2  S    0.204310
   21  C  2  S   -1.114138
   22  C  2  X   -0.014704
   23  C  2  Y   -0.005915
   24  C  2  Z   -0.007685
   25  C  2  S   -1.951429
   26  C  2  X   -0.328362
   27  C  2  Y    0.195019
   28  C  2  Z    0.271285
   29  C  2  S    0.356398
   30  C  2  X    0.135377
   31  C  2  Y   -0.102887
   32  C  2  Z   -0.007710
   33  C  2 XX    0.904017
   34  C  2 YY    0.835185
   35  C  2 ZZ    0.881264
   36  C  2 XY   -0.007125
   37  C  2 XZ   -0.059258
   38  C  2 YZ    0.011699
   39  H  3  S   -0.056231
   40  H  3  S    0.200458
   41  H  3  X   -0.019459
   42  H  3  Y   -0.071272
   43  H  3  Z    0.104337
   44  H  4  S   -0.044024
   45  H  4  S    0.275832
   46  H  4  X   -0.090932
   47  H  4  Y   -0.031159
   48  H  4  Z   -0.057558
   49  H  5  S   -0.060912
   50  H  5  S    0.120320
   51  H  5  X   -0.021707
   52  H  5  Y    0.120762
   53  H  5  Z    0.030050
   54  C  6  S    0.228442
   55  C  6  S   -1.203824
   56  C  6  X    0.015022
   57  C  6  Y   -0.002599
   58  C  6  Z   -0.009055
   59  C  6  S   -2.198415
   60  C  6  X    0.361661
   61  C  6  Y    0.141516
   62  C  6  Z    0.270609
   63  C  6  S   -0.130382
   64  C  6  X   -0.002558
   65  C  6  Y   -0.110907
   66  C  6  Z    0.056508
   67  C  6 XX    0.990577
   68  C  6 YY    0.921614
   69  C  6 ZZ    0.959897
   70  C  6 XY    0.009189
   71  C  6 XZ    0.061760
   72  C  6 YZ    0.017584
   73  H  7  S   -0.078293
   74  H  7  S    0.280812
   75  H  7  X   -0.022337
   76  H  7  Y    0.097066
   77  H  7  Z    0.069379
   78  H  8  S   -0.050386
   79  H  8  S    0.330393
   80  H  8  X    0.083664
   81  H  8  Y    0.019095
   82  H  8  Z   -0.078387
   83  H  9  S   -0.052226
   84  H  9  S    0.219486
   85  H  9  X    0.056890
   86  H  9  Y   -0.099103
   87  H  9  Z    0.077068
   88  O 10  S    0.091147
   89  O 10  S    0.040522
   90  O 10  X   -0.001443
   91  O 10  Y    0.019768
   92  O 10  Z    0.046100
   93  O 10  S   -1.287229
   94  O 10  X   -0.006373
   95  O 10  Y   -0.065695
   96  O 10  Z    0.078578
   97  O 10  S    0.700315
   98  O 10  X    0.005420
   99  O 10  Y   -0.100506
  100  O 10  Z    0.144418
  101  O 10 XX    0.252383
  102  O 10 YY    0.508467
  103  O 10 ZZ    0.358071
  104  O 10 XY   -0.004595
  105  O 10 XZ   -0.005509
  106  O 10 YZ    0.057970
  107  H 11  S    0.158165
  108  H 11  S   -0.376181
  109  H 11  X    0.008315
  110  H 11  Y   -0.147084
  111  H 11  Z    0.237985
  112  H 12  S   -0.076280
  113  H 12  S   -0.316051
  114  H 12  X   -0.008172
  115  H 12  Y   -0.149287
  116  H 12  Z    0.060944
 ...... END OF RHF CALCULATION ......
 STEP CPU TIME =     2.15 TOTAL CPU TIME =          3.1 (      0.1 MIN)
 TOTAL WALL CLOCK TIME=          3.3 SECONDS, CPU UTILIZATION IS    95.12%

     ----------------------------------------------------------------
     PROPERTY VALUES FOR THE RHF   SELF-CONSISTENT FIELD WAVEFUNCTION
     ----------------------------------------------------------------

          -----------------
          ENERGY COMPONENTS
          -----------------

         WAVEFUNCTION NORMALIZATION =       1.0000000000

                ONE ELECTRON ENERGY =    -529.4576806708
                TWO ELECTRON ENERGY =     201.3130314527
           NUCLEAR REPULSION ENERGY =     135.0113836103
                                      ------------------
                       TOTAL ENERGY =    -193.1332656078

 ELECTRON-ELECTRON POTENTIAL ENERGY =     201.3130314527
  NUCLEUS-ELECTRON POTENTIAL ENERGY =    -722.1830817443
   NUCLEUS-NUCLEUS POTENTIAL ENERGY =     135.0113836103
                                      ------------------
             TOTAL POTENTIAL ENERGY =    -385.8586666813
               TOTAL KINETIC ENERGY =     192.7254010736
                 VIRIAL RATIO (V/T) =       2.0021162988

          ---------------------------------------
          MULLIKEN AND LOWDIN POPULATION ANALYSES
          ---------------------------------------

     ATOMIC MULLIKEN POPULATION IN EACH MOLECULAR ORBITAL

                      1          2          3          4          5

                  2.000000   2.000000   2.000000   2.000000   2.000000

    1             0.000468   1.997349   0.001672   0.002495   0.259501
    2            -0.000071   0.000478   1.996761  -0.000391   0.011885
    3            -0.000000  -0.000002   0.000600  -0.000001   0.001331
    4            -0.000000  -0.000008   0.000576   0.000001   0.000707
    5             0.000000  -0.000001   0.000531  -0.000004   0.000234
    6            -0.000095   0.000764  -0.000265   1.996116   0.004010
    7             0.000000  -0.000013   0.000001   0.000518   0.000225
    8            -0.000000  -0.000007  -0.000001   0.000614   0.000890
    9             0.000000  -0.000010  -0.000000   0.000558   0.001590
   10             1.999787   0.000940   0.000146   0.000126   1.571014
   11            -0.000000   0.000500  -0.000011  -0.000020   0.012635
   12            -0.000087   0.000010  -0.000009  -0.000011   0.135978

                      6          7          8          9         10

                  2.000000   2.000000   2.000000   2.000000   2.000000

    1             0.421668   0.179718   0.578851   0.367087   0.537427
    2             0.553577   0.626195   0.204499   0.266739   0.212059
    3             0.044333   0.085555   0.072090   0.000663   0.084527
    4             0.034811   0.099440   0.030712   0.098179   0.004175
    5             0.047549   0.082605   0.045919   0.035478   0.054112
    6             0.531891   0.638882   0.201967   0.260788   0.202193
    7             0.046820   0.077978   0.058563   0.014322   0.032483
    8             0.037183   0.102620   0.027812   0.104549   0.003170
    9             0.039766   0.094028   0.069694   0.002289   0.095667
   10             0.156480   0.012679   0.394554   0.682917   0.545402
   11             0.059133   0.000203   0.198853   0.013421   0.159665
   12             0.026791   0.000097   0.116485   0.153567   0.069120

                     11         12         13         14         15

                  2.000000   2.000000   2.000000   2.000000   2.000000

    1             0.366748   0.060560   0.030098   0.205319   0.092388
    2             0.385928   0.383219   0.563763   0.249325   0.465578
    3             0.038542   0.015298   0.309959   0.122342   0.006511
    4             0.019614   0.188103   0.012210   0.002850   0.310562
    5             0.137453   0.056151   0.132140   0.137169   0.092269
    6             0.322106   0.475102   0.512250   0.327075   0.409794
    7             0.129393   0.201885   0.021476   0.078873   0.124311
    8             0.000678   0.166950   0.092670   0.040878   0.190859
    9             0.008995   0.005213   0.300808   0.190145   0.020194
   10             0.586754   0.315865   0.023633   0.553325   0.285860
   11             0.000686   0.043472   0.000632   0.089091   0.000235
   12             0.003102   0.088183   0.000363   0.003608   0.001439

                     16         17

                  2.000000   2.000000

    1             0.446438   0.250528
    2             0.244927   0.281504
    3             0.101413  -0.000411
    4             0.021070   0.029094
    5             0.018134   0.032800
    6             0.258235   0.290708
    7             0.069378   0.018670
    8             0.040809   0.048131
    9             0.049685  -0.000206
   10             0.403443   1.042642
   11             0.295365   0.000587
   12             0.051104   0.005953

               ----- POPULATIONS IN EACH AO -----
                             MULLIKEN      LOWDIN
              1  C  1  S      1.99718     1.97741
              2  C  1  S      0.63947     0.32632
              3  C  1  X      0.69791     0.62410
              4  C  1  Y      0.54275     0.49105
              5  C  1  Z      0.69709     0.61643
              6  C  1  S      0.52176     0.24501
              7  C  1  X      0.19391     0.33159
              8  C  1  Y      0.14148     0.27578
              9  C  1  Z      0.29666     0.37552
             10  C  1  S     -0.05871     0.07785
             11  C  1  X     -0.00018     0.06683
             12  C  1  Y      0.02135     0.04840
             13  C  1  Z      0.01936     0.05218
             14  C  1 XX      0.01378     0.14690
             15  C  1 YY      0.01925     0.15303
             16  C  1 ZZ      0.00689     0.13901
             17  C  1 XY      0.01327     0.02635
             18  C  1 XZ      0.01604     0.02631
             19  C  1 YZ      0.01907     0.03477
             20  C  2  S      1.99685     1.98017
             21  C  2  S      0.63855     0.33859
             22  C  2  X      0.68340     0.61081
             23  C  2  Y      0.67995     0.59437
             24  C  2  Z      0.67864     0.59869
             25  C  2  S      0.63620     0.29360
             26  C  2  X      0.29801     0.39603
             27  C  2  Y      0.37490     0.44841
             28  C  2  Z      0.34147     0.43232
             29  C  2  S      0.03873     0.07689
             30  C  2  X      0.02241     0.06392
             31  C  2  Y      0.00432     0.05963
             32  C  2  Z      0.01165     0.05380
             33  C  2 XX      0.00934     0.14968
             34  C  2 YY      0.00613     0.14606
             35  C  2 ZZ      0.00302     0.14223
             36  C  2 XY      0.00256     0.00479
             37  C  2 XZ      0.01096     0.01770
             38  C  2 YZ      0.00888     0.01459
             39  H  3  S      0.53134     0.48911
             40  H  3  S      0.33885     0.32204
             41  H  3  X      0.00179     0.00661
             42  H  3  Y      0.00389     0.01023
             43  H  3  Z      0.00687     0.01543
             44  H  4  S      0.52738     0.48714
             45  H  4  S      0.31222     0.31672
             46  H  4  X      0.00650     0.01543
             47  H  4  Y      0.00224     0.00698
             48  H  4  Z      0.00376     0.01021
             49  H  5  S      0.52979     0.48988
             50  H  5  S      0.33019     0.32197
             51  H  5  X      0.00181     0.00657
             52  H  5  Y      0.00845     0.01918
             53  H  5  Z      0.00231     0.00728
             54  C  6  S      1.99687     1.98016
             55  C  6  S      0.63839     0.33842
             56  C  6  X      0.68176     0.60909
             57  C  6  Y      0.68218     0.59769
             58  C  6  Z      0.67863     0.59808
             59  C  6  S      0.63303     0.29323
             60  C  6  X      0.29526     0.39422
             61  C  6  Y      0.36736     0.44542
             62  C  6  Z      0.35030     0.43618
             63  C  6  S      0.02517     0.07629
             64  C  6  X      0.02534     0.06382
             65  C  6  Y      0.00289     0.05863
             66  C  6  Z      0.01360     0.05492
             67  C  6 XX      0.00810     0.14735
             68  C  6 YY      0.00375     0.14278
             69  C  6 ZZ      0.00013     0.13818
             70  C  6 XY      0.00354     0.00655
             71  C  6 XZ      0.01287     0.02081
             72  C  6 YZ      0.01236     0.02029
             73  H  7  S      0.53011     0.48879
             74  H  7  S      0.33217     0.32099
             75  H  7  X      0.00180     0.00650
             76  H  7  Y      0.00655     0.01536
             77  H  7  Z      0.00425     0.01088
             78  H  8  S      0.52842     0.48865
             79  H  8  S      0.31683     0.31907
             80  H  8  X      0.00582     0.01403
             81  H  8  Y      0.00203     0.00670
             82  H  8  Z      0.00472     0.01204
             83  H  9  S      0.52963     0.48631
             84  H  9  S      0.33619     0.31918
             85  H  9  X      0.00254     0.00786
             86  H  9  Y      0.00591     0.01400
             87  H  9  Z      0.00414     0.01043
             88  O 10  S      1.99527     1.97693
             89  O 10  S      0.89419     0.69204
             90  O 10  X      1.14082     1.10470
             91  O 10  Y      0.80334     0.73999
             92  O 10  Z      0.93606     0.87401
             93  O 10  S      0.94421     0.40358
             94  O 10  X      0.75799     0.69474
             95  O 10  Y      0.49407     0.49849
             96  O 10  Z      0.59136     0.59800
             97  O 10  S     -0.05817     0.10344
             98  O 10  X      0.04589     0.11844
             99  O 10  Y     -0.01376     0.09738
            100  O 10  Z      0.00101     0.11227
            101  O 10 XX      0.00253     0.15615
            102  O 10 YY      0.02136     0.17690
            103  O 10 ZZ      0.00544     0.16404
            104  O 10 XY      0.00184     0.00582
            105  O 10 XZ      0.00170     0.00160
            106  O 10 YZ      0.01042     0.01857
            107  H 11  S      0.54075     0.50370
            108  H 11  S      0.32161     0.29830
            109  H 11  X      0.00175     0.00664
            110  H 11  Y      0.00344     0.00891
            111  H 11  Z      0.00690     0.01621
            112  H 12  S      0.47989     0.42858
            113  H 12  S      0.13490     0.17284
            114  H 12  X      0.01039     0.02924
            115  H 12  Y      0.01269     0.03083
            116  H 12  Z      0.01783     0.04286

          ----- MULLIKEN ATOMIC OVERLAP POPULATIONS -----
          (OFF-DIAGONAL ELEMENTS NEED TO BE MULTIPLIED BY 2)

             1           2           3           4           5

    1    4.9082103
    2    0.2784068   5.0755792
    3   -0.0122529   0.3914273   0.5717201
    4   -0.0224849   0.3928492  -0.0303678   0.5366524
    5   -0.0750320   0.4285378  -0.0270511  -0.0243020   0.5585073
    6    0.2240467  -0.0125756  -0.0072281   0.0118351   0.0030849
    7   -0.0762837   0.0030247   0.0002166   0.0001387  -0.0006836
    8   -0.0191667   0.0107031  -0.0000413  -0.0000983  -0.0000397
    9   -0.0006558  -0.0110389   0.0008959  -0.0001346   0.0002854
   10    0.0872062  -0.0401342  -0.0116098  -0.0069182   0.0107018
   11    0.4368532  -0.0421422   0.0039897  -0.0046556  -0.0013110
   12    0.0694670  -0.0286627   0.0030502  -0.0004183  -0.0001599

             6           7           8           9          10

    6    5.1186484
    7    0.4281218   0.5639763
    8    0.3889457  -0.0270939   0.5399226
    9    0.3931451  -0.0275068  -0.0267773   0.5588048
   10   -0.0395368   0.0103530  -0.0021506  -0.0157715   8.3912584
   11   -0.0359765   0.0008202  -0.0063280   0.0033630  -0.0548426
   12   -0.0409924  -0.0001987  -0.0000687   0.0038067   0.2470108

            11          12

   11    0.5688159
   12    0.0058577   0.3970013

          TOTAL MULLIKEN AND LOWDIN ATOMIC POPULATIONS
       ATOM         MULL.POP.    CHARGE          LOW.POP.     CHARGE
    1 C             5.798314    0.201686         6.034841   -0.034841
    2 C             6.445975   -0.445975         6.422274   -0.422274
    3 H             0.882749    0.117251         0.843415    0.156585
    4 H             0.852096    0.147904         0.836485    0.163515
    5 H             0.872538    0.127462         0.844881    0.155119
    6 C             6.431518   -0.431518         6.422105   -0.422105
    7 H             0.874884    0.125116         0.842513    0.157487
    8 H             0.857807    0.142193         0.840492    0.159508
    9 H             0.878416    0.121584         0.837775    0.162225
   10 O             8.575567   -0.575567         8.537098   -0.537098
   11 H             0.874444    0.125556         0.833771    0.166229
   12 H             0.655693    0.344307         0.704350    0.295650

          -------------------------------
          BOND ORDER AND VALENCE ANALYSIS     BOND ORDER THRESHOLD=0.050
          -------------------------------

                   BOND                       BOND                       BOND
  ATOM PAIR DIST  ORDER      ATOM PAIR DIST  ORDER      ATOM PAIR DIST  ORDER
    1   2  1.521  1.041        1   6  1.522  1.003        1  10  1.424  0.876
    1  11  1.095  0.946        1  12  1.956  0.071        2   3  1.095  0.964
    2   4  1.095  0.964        2   5  1.095  0.988        6   7  1.094  0.990
    6   8  1.096  0.967        6   9  1.095  0.967        6  10  2.404 -0.055
   10  12  0.974  0.831

                       TOTAL       BONDED        FREE
      ATOM            VALENCE     VALENCE     VALENCE
    1 C                 3.902       3.902       0.000
    2 C                 3.933       3.933       0.000
    3 H                 0.955       0.955       0.000
    4 H                 0.946       0.946      -0.000
    5 H                 0.953       0.953      -0.000
    6 C                 3.892       3.892      -0.000
    7 H                 0.952       0.952      -0.000
    8 H                 0.950       0.950       0.000
    9 H                 0.958       0.958       0.000
   10 O                 1.552       1.552      -0.000
   11 H                 0.954       0.954       0.000
   12 H                 0.873       0.873       0.000

          ---------------------
          ELECTROSTATIC MOMENTS
          ---------------------

 POINT   1           X           Y           Z (BOHR)    CHARGE
                -4.192375    0.768533   -0.476208        0.00 (A.U.)
         DX          DY          DZ         /D/  (DEBYE)
    -0.080139    0.856372    1.752953    1.952598
 ...... END OF PROPERTY EVALUATION ......
 STEP CPU TIME =     0.02 TOTAL CPU TIME =          3.1 (      0.1 MIN)
 TOTAL WALL CLOCK TIME=          3.3 SECONDS, CPU UTILIZATION IS    95.44%
               580000  WORDS OF DYNAMIC MEMORY USED
 EXECUTION OF GAMESS TERMINATED NORMALLY Sun Feb 16 17:38:33 2020
 DDI: 263640 bytes (0.3 MB / 0 MWords) used by master data server.

 ----------------------------------------
 CPU timing information for all processes
 ========================================
 0: 2.538 + 0.610 = 3.149
 1: 0.01 + 0.02 = 0.04
 ----------------------------------------
 ddikick.x: exited gracefully.
unset echo
----- accounting info -----
Files used on the master node Vusals-MacBook-Pro.local were:
-rw-r--r--@ 1 wurthel  staff        752 Feb 16 17:38 .//Isopropanol_6-31G+(d,p).F05
-rw-r--r--  1 wurthel  staff  247341984 Feb 16 17:38 .//Isopropanol_6-31G+(d,p).F08
-rw-r--r--  1 wurthel  staff    2290400 Feb 16 17:38 .//Isopropanol_6-31G+(d,p).F10
-rw-r--r--  1 wurthel  staff     221705 Feb 16 17:38 .//Isopropanol_6-31G+(d,p).dat
-rw-r--r--@ 1 wurthel  staff        752 Feb 16 17:38 .//Isopropanol_6-31G+(d,p).inp
-rw-r--r--  1 wurthel  staff     240279 Feb 16 17:38 .//Isopropanol_6-31G+(d,p).log
ls: No match.
ls: No match.
ls: No match.
Sun Feb 16 17:38:36 MSK 2020
2.603u 0.695s 0:06.76 48.6%	0+0k 0+0io 110pf+0w
