----- GAMESS execution script 'rungms' -----
This job is running on host Vusals-MacBook-Pro.local
under operating system Darwin at Sat Mar 28 14:45:20 MSK 2020
Available scratch disk space (Kbyte units) at beginning of the job is
Filesystem   1024-blocks     Used Available Capacity iused               ifree %iused  Mounted on
/dev/disk1s5   118181844 51799716  61971124    46% 1443324 9223372036853332483    0%   /
GAMESS temporary binary files will be written to ./
GAMESS supplementary output files will be written to ./
Copying input file struct.inp to your run's scratch directory...
cp struct.inp .//struct.F05
unset echo
.//ddikick.x .//gamess.30Sep2018R3.x struct -ddi 1 1 Vusals-MacBook-Pro.local -scr ./

 Distributed Data Interface kickoff program.
 Initiating 1 compute processes on 1 nodes to run the following command:
 .//gamess.30Sep2018R3.x struct 

          ******************************************************
          *         GAMESS VERSION = 30 SEP 2018 (R3)         *
          *             FROM IOWA STATE UNIVERSITY             *
          * M.W.SCHMIDT, K.K.BALDRIDGE, J.A.BOATZ, S.T.ELBERT, *
          *   M.S.GORDON, J.H.JENSEN, S.KOSEKI, N.MATSUNAGA,   *
          *          K.A.NGUYEN, S.J.SU, T.L.WINDUS,           *
          *       TOGETHER WITH M.DUPUIS, J.A.MONTGOMERY       *
          *         J.COMPUT.CHEM.  14, 1347-1363(1993)        *
          **************** 64 BIT APPLE VERSION ****************

  SINCE 1993, STUDENTS AND POSTDOCS WORKING AT IOWA STATE UNIVERSITY
  AND ALSO IN THEIR VARIOUS JOBS AFTER LEAVING ISU HAVE MADE IMPORTANT
  CONTRIBUTIONS TO THE CODE:
     IVANA ADAMOVIC, CHRISTINE AIKENS, YURI ALEXEEV, POOJA ARORA,
     ANDREY ASADCHEV, ROB BELL, PRADIPTA BANDYOPADHYAY, JONATHAN BENTZ,
     BRETT BODE, KURT BRORSEN, CALEB CARLIN, GALINA CHABAN, WEI CHEN,
     CHEOL HO CHOI, PAUL DAY, ALBERT DEFUSCO, NUWAN DESILVA, TIM DUDLEY,
     DMITRI FEDOROV, ALEX FINDLATER, GRAHAM FLETCHER, MARK FREITAG,
     KURT GLAESEMANN, ANASTASIA GUNINA,
     DAN KEMP, GRANT MERRILL, NORIYUKI MINEZAWA, JONATHAN MULLIN,
     TAKESHI NAGATA, SEAN NEDD, HEATHER NETZLOFF, BOSILJKA NJEGIC, RYAN OLSON,
     MIKE PAK, BUU PHAM,
     SPENCER PRUITT, LUKE ROSKOP, JIM SHOEMAKER, LYUDMILA SLIPCHENKO,
     TONY SMITH, SAROM SOK LEANG, JIE SONG, TETSUYA TAKETSUGU, SIMON WEBB,
     PENG XU, SOOHAENG YOO, FEDERICO ZAHARIEV

  ADDITIONAL CODE HAS BEEN PROVIDED BY COLLABORATORS IN OTHER GROUPS:
     IOWA STATE UNIVERSITY:
          JOE IVANIC, AARON WEST, LAIMUTIS BYTAUTAS, KLAUS RUEDENBERG
     UNIVERSITY OF TOKYO: KIMIHIKO HIRAO, TAKAHITO NAKAJIMA,
          TAKAO TSUNEDA, MUNEAKI KAMIYA, SUSUMU YANAGISAWA,
          KIYOSHI YAGI, MAHITO CHIBA, SEIKEN TOKURA, NAOAKI KAWAKAMI
     UNIVERSITY OF AARHUS: FRANK JENSEN
     UNIVERSITY OF IOWA: VISVALDAS KAIRYS, HUI LI
     NATIONAL INST. OF STANDARDS AND TECHNOLOGY: WALT STEVENS, DAVID GARMER
     UNIVERSITY OF PISA: BENEDETTA MENNUCCI, JACOPO TOMASI
     UNIVERSITY OF MEMPHIS: HENRY KURTZ, PRAKASHAN KORAMBATH
     UNIVERSITY OF ALBERTA: TOBY ZENG, MARIUSZ KLOBUKOWSKI
     UNIVERSITY OF NEW ENGLAND: MARK SPACKMAN
     MIE UNIVERSITY: HIROAKI UMEDA
     NAT. INST. OF ADVANCED INDUSTRIAL SCIENCE AND TECHNOLOGY: KAZUO KITAURA
     MICHIGAN STATE UNIVERSITY:
          KAROL KOWALSKI, MARTA WLOCH, JEFFREY GOUR, JESSE LUTZ,
          WEI LI, JUN SHEN, J. EMILIANO DEUSTUA, PIOTR PIECUCH
     UNIVERSITY OF MINNESOTA:
          YINAN SHU
     UNIVERSITY OF SILESIA: MONIKA MUSIAL, STANISLAW KUCHARSKI
     FACULTES UNIVERSITAIRES NOTRE-DAME DE LA PAIX:
          OLIVIER QUINET, BENOIT CHAMPAGNE
     UNIVERSITY OF CALIFORNIA - SANTA BARBARA: BERNARD KIRTMAN
     INSTITUTE FOR MOLECULAR SCIENCE:
          KAZUYA ISHIMURA, MICHIO KATOUDA, AND SHIGERU NAGASE
     UNIVERSITY OF NOTRE DAME: ANNA POMOGAEVA, DAN CHIPMAN
     KYUSHU UNIVERSITY:
          HARUYUKI NAKANO,
          FENG LONG GU, JACEK KORCHOWIEC, MARCIN MAKOWSKI, AND YURIKO AOKI,
          HIROTOSHI MORI AND EISAKU MIYOSHI
     PENNSYLVANIA STATE UNIVERSITY:
          TZVETELIN IORDANOV, CHET SWALINA, JONATHAN SKONE,
          SHARON HAMMES-SCHIFFER
     WASEDA UNIVERSITY:
          MASATO KOBAYASHI, TOMOKO AKAMA, TSUGUKI TOUMA,
          TAKESHI YOSHIKAWA, YASUHIRO IKABATA, JUNJI SEINO,
          YUYA NAKAJIMA, HIROMI NAKAI
     NANJING UNIVERSITY: SHUHUA LI
     UNIVERSITY OF NEBRASKA:
          PEIFENG SU, DEJUN SI, NANDUN THELLAMUREGE, YALI WANG, HUI LI
     UNIVERSITY OF ZURICH: ROBERTO PEVERATI, KIM BALDRIDGE
     N. COPERNICUS UNIVERSITY AND JACKSON STATE UNIVERSITY:
          MARIA BARYSZ
     UNIVERSITY OF COPENHAGEN: Jimmy Kromann, CASPER STEINMANN
     TOKYO INSTITUTE OF TECHNOLOGY: HIROYA NAKATA
     NAGOYA UNIVERSITY: YOSHIO NISHIMOTO, STEPHAN IRLE
     MOSCOW STATE UNIVERSITY: VLADIMIR MIRONOV

 EXECUTION OF GAMESS BEGUN Sat Mar 28 14:45:20 2020

            ECHO OF THE FIRST FEW INPUT CARDS -
 INPUT CARD>!   File created by the GAMESS Input Deck Generator Plugin for Avogadro         
 INPUT CARD> $BASIS GBASIS=N31 NGAUSS=6 NDFUNC=0 $END                                       
 INPUT CARD> $CONTRL SCFTYP=RHF RUNTYP=ENERGY CITYP=CIS $END                                
 INPUT CARD> $CIS NSTATE=6 $END                                                             
 INPUT CARD> $SYSTEM MWORDS=100 $END                                                        
 INPUT CARD>                                                                                
 INPUT CARD> $DATA                                                                          
 INPUT CARD>Title                                                                           
 INPUT CARD>C1                                                                              
 INPUT CARD>N     7.0     1.18930     1.38880    -0.00000                                   
 INPUT CARD>N     7.0     2.42410    -0.68050    -0.00000                                   
 INPUT CARD>C     6.0     0.00710    -0.69790     0.00000                                   
 INPUT CARD>C     6.0     0.03080     0.70650     0.00000                                   
 INPUT CARD>C     6.0    -1.21040    -1.40060     0.00000                                   
 INPUT CARD>C     6.0    -1.18990     1.37710     0.00000                                   
 INPUT CARD>C     6.0    -2.41540    -0.70500     0.00000                                   
 INPUT CARD>C     6.0     1.24610    -1.33230    -0.00000                                   
 INPUT CARD>C     6.0    -2.40470     0.68540    -0.00000                                   
 INPUT CARD>C     6.0     2.32290     0.65850     0.00000                                   
 INPUT CARD>H     1.0    -1.22340    -2.48790     0.00000                                   
 INPUT CARD>H     1.0    -1.20910     2.46540    -0.00000                                   
 INPUT CARD>H     1.0     1.32830    -2.41530    -0.00000                                   
 INPUT CARD>H     1.0    -3.35760    -1.24440     0.00000                                   
 INPUT CARD>H     1.0    -3.34090     1.23620    -0.00000                                   
 INPUT CARD>H     1.0     3.25270     1.21420     0.00000                                   
 INPUT CARD> $END                                                                           
  100000000 WORDS OF MEMORY AVAILABLE

     BASIS OPTIONS
     -------------
     GBASIS=N31          IGAUSS=       6      POLAR=NONE    
     NDFUNC=       0     NFFUNC=       0     DIFFSP=       F
     NPFUNC=       0      DIFFS=       F     BASNAM=        


     RUN TITLE
     ---------
 Title                                                                           

 THE POINT GROUP OF THE MOLECULE IS C1      
 THE ORDER OF THE PRINCIPAL AXIS IS     0

 ATOM      ATOMIC                      COORDINATES (BOHR)
           CHARGE         X                   Y                   Z
 N           7.0     2.2474511172        2.6244514517       -0.0000000000
 N           7.0     4.5808847668       -1.2859585346       -0.0000000000
 C           6.0     0.0134170545       -1.3188397668        0.0000000000
 C           6.0     0.0582035604        1.3350914103        0.0000000000
 C           6.0    -2.2873243355       -2.6467502184        0.0000000000
 C           6.0    -2.2485849528        2.6023416577        0.0000000000
 C           6.0    -4.5644441507       -1.3322568213        0.0000000000
 C           6.0     2.3547875533       -2.5176819334       -0.0000000000
 C           6.0    -4.5442240827        1.2952181920       -0.0000000000
 C           6.0     4.3896444969        1.2443845629        0.0000000000
 H           1.0    -2.3118907734       -4.7014492849        0.0000000000
 H           1.0    -2.2848676918        4.6589304501       -0.0000000000
 H           1.0     2.5101230295       -4.5642551781       -0.0000000000
 H           1.0    -6.3449439764       -2.3515750191        0.0000000000
 H           1.0    -6.3133855524        2.3360792660       -0.0000000000
 H           1.0     6.1467117203        2.2945052943        0.0000000000

          INTERNUCLEAR DISTANCES (ANGS.)
          ------------------------------

                1 N          2 N          3 C          4 C          5 C     

   1 N       0.0000000    2.4097165 *  2.3983148 *  1.3444908 *  3.6795805  
   2 N       2.4097165 *  0.0000000    2.4170626 *  2.7661623 *  3.7051497  
   3 C       2.3983148 *  2.4170626 *  0.0000000    1.4046000 *  1.4057359 *
   4 C       1.3444908 *  2.7661623 *  1.4046000 *  0.0000000    2.4454954 *
   5 C       3.6795805    3.7051497    1.4057359 *  2.4454954 *  0.0000000  
   6 C       2.3792288 *  4.1586914    2.3955029 *  1.3927716 *  2.7777756 *
   7 C       4.1686761    4.8395620    2.4225104 *  2.8242214 *  1.3913606 *
   8 C       2.7216928 *  1.3463013 *  1.3919714 *  2.3735331 *  2.4574493 *
   9 C       3.6621862    5.0182659    2.7803414 *  2.4355914 *  2.4036948 *
  10 C       1.3484758 *  1.3428188 *  2.6837941 *  2.2926025 *  4.0895112  
  11 H       4.5661717    4.0707433    2.1721488 *  3.4317938    1.0873777 *
  12 H       2.6289523 *  4.8059160    3.3890425    2.1519947 *  3.8660002  
  13 H       3.8066386    2.0519037 *  2.1668023 *  3.3807013    2.7339740 *
  14 H       5.2543355    5.8091340    3.4087928    3.9098933    2.1528740 *
  15 H       4.5327694    6.0752748    3.8665032    3.4130548    3.3899476  
  16 H       2.0707739 *  2.0679618 *  3.7669677    3.2616559    5.1726628  

                6 C          7 C          8 C          9 C         10 C     

   1 N       2.3792288 *  4.1686761    2.7216928 *  3.6621862    1.3484758 *
   2 N       4.1586914    4.8395620    1.3463013 *  5.0182659    1.3428188 *
   3 C       2.3955029 *  2.4225104 *  1.3919714 *  2.7803414 *  2.6837941 *
   4 C       1.3927716 *  2.8242214 *  2.3735331 *  2.4355914 *  2.2926025 *
   5 C       2.7777756 *  1.3913606 *  2.4574493 *  2.4036948 *  4.0895112  
   6 C       0.0000000    2.4159865 *  3.6434797    1.3979227 *  3.5855474  
   7 C       2.4159865 *  0.0000000    3.7148469    1.3904412 *  4.9305800  
   8 C       3.6434797    3.7148469    0.0000000    4.1712653    2.2633566 *
   9 C       1.3979227 *  1.3904412 *  4.1712653    0.0000000    4.7276765  
  10 C       3.5855474    4.9305800    2.2633566 *  4.7276765    0.0000000  
  11 H       3.8651452    2.1446670 *  2.7265072 *  3.3860453    4.7408941  
  12 H       1.0884694 *  3.3921374    4.5222265    2.1442620 *  3.9673557  
  13 H       4.5523213    4.1158736    1.0861150 *  4.8527960    3.2307082  
  14 H       3.4016445    1.0856764 *  4.6045391    2.1522422 *  5.9907519  
  15 H       2.1556098 *  2.1505366 *  5.2571629    1.0862095 *  5.6931861  
  16 H       4.4455856    5.9842031    3.2420836    5.6820599    1.0832038 *

               11 H         12 H         13 H         14 H         15 H     

   1 N       4.5661717    2.6289523 *  3.8066386    5.2543355    4.5327694  
   2 N       4.0707433    4.8059160    2.0519037 *  5.8091340    6.0752748  
   3 C       2.1721488 *  3.3890425    2.1668023 *  3.4087928    3.8665032  
   4 C       3.4317938    2.1519947 *  3.3807013    3.9098933    3.4130548  
   5 C       1.0873777 *  3.8660002    2.7339740 *  2.1528740 *  3.3899476  
   6 C       3.8651452    1.0884694 *  4.5523213    3.4016445    2.1556098 *
   7 C       2.1446670 *  3.3921374    4.1158736    1.0856764 *  2.1505366 *
   8 C       2.7265072 *  4.5222265    1.0861150 *  4.6045391    5.2571629  
   9 C       3.3860453    2.1442620 *  4.8527960    2.1522422 *  1.0862095 *
  10 C       4.7408941    3.9673557    3.2307082    5.9907519    5.6931861  
  11 H       0.0000000    4.9533206    2.5527326 *  2.4700409 *  4.2840083  
  12 H       4.9533206    0.0000000    5.5008755    4.2870349    2.4607933 *
  13 H       2.5527326 *  5.5008755    0.0000000    4.8299757    5.9274683  
  14 H       2.4700409 *  4.2870349    4.8299757    0.0000000    2.4806562 *
  15 H       4.2840083    2.4607933 *  5.9274683    2.4806562 *  0.0000000  
  16 H       5.8087017    4.6339142    4.1081122    7.0527144    6.5936367  

               16 H     

   1 N       2.0707739 *
   2 N       2.0679618 *
   3 C       3.7669677  
   4 C       3.2616559  
   5 C       5.1726628  
   6 C       4.4455856  
   7 C       5.9842031  
   8 C       3.2420836  
   9 C       5.6820599  
  10 C       1.0832038 *
  11 H       5.8087017  
  12 H       4.6339142  
  13 H       4.1081122  
  14 H       7.0527144  
  15 H       6.5936367  
  16 H       0.0000000  

  * ... LESS THAN  3.000


     ATOMIC BASIS SET
     ----------------
 THE CONTRACTED PRIMITIVE FUNCTIONS HAVE BEEN UNNORMALIZED
 THE CONTRACTED BASIS FUNCTIONS ARE NOW NORMALIZED TO UNITY

  SHELL TYPE  PRIMITIVE        EXPONENT          CONTRACTION COEFFICIENT(S)

 N         

      1   S       1          4173.5114600    0.001834772160
      1   S       2           627.4579110    0.013994627002
      1   S       3           142.9020930    0.068586551812
      1   S       4            40.2343293    0.232240873040
      1   S       5            12.8202129    0.469069948082
      1   S       6             4.3904370    0.360455199063

      2   L       7            11.6263619   -0.114961181702    0.067579743878
      2   L       8             2.7162798   -0.169117478561    0.323907295893
      2   L       9             0.7722184    1.145851947027    0.740895139755

      3   L      10             0.2120315    1.000000000000    1.000000000000

 N         

      4   S      11          4173.5114600    0.001834772160
      4   S      12           627.4579110    0.013994627002
      4   S      13           142.9020930    0.068586551812
      4   S      14            40.2343293    0.232240873040
      4   S      15            12.8202129    0.469069948082
      4   S      16             4.3904370    0.360455199063

      5   L      17            11.6263619   -0.114961181702    0.067579743878
      5   L      18             2.7162798   -0.169117478561    0.323907295893
      5   L      19             0.7722184    1.145851947027    0.740895139755

      6   L      20             0.2120315    1.000000000000    1.000000000000

 C         

      7   S      21          3047.5248800    0.001834737132
      7   S      22           457.3695180    0.014037322813
      7   S      23           103.9486850    0.068842622264
      7   S      24            29.2101553    0.232184443216
      7   S      25             9.2866630    0.467941348435
      7   S      26             3.1639270    0.362311985337

      8   L      27             7.8682723   -0.119332419775    0.068999066591
      8   L      28             1.8812885   -0.160854151696    0.316423960957
      8   L      29             0.5442493    1.143456437840    0.744308290898

      9   L      30             0.1687145    1.000000000000    1.000000000000

 C         

     10   S      31          3047.5248800    0.001834737132
     10   S      32           457.3695180    0.014037322813
     10   S      33           103.9486850    0.068842622264
     10   S      34            29.2101553    0.232184443216
     10   S      35             9.2866630    0.467941348435
     10   S      36             3.1639270    0.362311985337

     11   L      37             7.8682723   -0.119332419775    0.068999066591
     11   L      38             1.8812885   -0.160854151696    0.316423960957
     11   L      39             0.5442493    1.143456437840    0.744308290898

     12   L      40             0.1687145    1.000000000000    1.000000000000

 C         

     13   S      41          3047.5248800    0.001834737132
     13   S      42           457.3695180    0.014037322813
     13   S      43           103.9486850    0.068842622264
     13   S      44            29.2101553    0.232184443216
     13   S      45             9.2866630    0.467941348435
     13   S      46             3.1639270    0.362311985337

     14   L      47             7.8682723   -0.119332419775    0.068999066591
     14   L      48             1.8812885   -0.160854151696    0.316423960957
     14   L      49             0.5442493    1.143456437840    0.744308290898

     15   L      50             0.1687145    1.000000000000    1.000000000000

 C         

     16   S      51          3047.5248800    0.001834737132
     16   S      52           457.3695180    0.014037322813
     16   S      53           103.9486850    0.068842622264
     16   S      54            29.2101553    0.232184443216
     16   S      55             9.2866630    0.467941348435
     16   S      56             3.1639270    0.362311985337

     17   L      57             7.8682723   -0.119332419775    0.068999066591
     17   L      58             1.8812885   -0.160854151696    0.316423960957
     17   L      59             0.5442493    1.143456437840    0.744308290898

     18   L      60             0.1687145    1.000000000000    1.000000000000

 C         

     19   S      61          3047.5248800    0.001834737132
     19   S      62           457.3695180    0.014037322813
     19   S      63           103.9486850    0.068842622264
     19   S      64            29.2101553    0.232184443216
     19   S      65             9.2866630    0.467941348435
     19   S      66             3.1639270    0.362311985337

     20   L      67             7.8682723   -0.119332419775    0.068999066591
     20   L      68             1.8812885   -0.160854151696    0.316423960957
     20   L      69             0.5442493    1.143456437840    0.744308290898

     21   L      70             0.1687145    1.000000000000    1.000000000000

 C         

     22   S      71          3047.5248800    0.001834737132
     22   S      72           457.3695180    0.014037322813
     22   S      73           103.9486850    0.068842622264
     22   S      74            29.2101553    0.232184443216
     22   S      75             9.2866630    0.467941348435
     22   S      76             3.1639270    0.362311985337

     23   L      77             7.8682723   -0.119332419775    0.068999066591
     23   L      78             1.8812885   -0.160854151696    0.316423960957
     23   L      79             0.5442493    1.143456437840    0.744308290898

     24   L      80             0.1687145    1.000000000000    1.000000000000

 C         

     25   S      81          3047.5248800    0.001834737132
     25   S      82           457.3695180    0.014037322813
     25   S      83           103.9486850    0.068842622264
     25   S      84            29.2101553    0.232184443216
     25   S      85             9.2866630    0.467941348435
     25   S      86             3.1639270    0.362311985337

     26   L      87             7.8682723   -0.119332419775    0.068999066591
     26   L      88             1.8812885   -0.160854151696    0.316423960957
     26   L      89             0.5442493    1.143456437840    0.744308290898

     27   L      90             0.1687145    1.000000000000    1.000000000000

 C         

     28   S      91          3047.5248800    0.001834737132
     28   S      92           457.3695180    0.014037322813
     28   S      93           103.9486850    0.068842622264
     28   S      94            29.2101553    0.232184443216
     28   S      95             9.2866630    0.467941348435
     28   S      96             3.1639270    0.362311985337

     29   L      97             7.8682723   -0.119332419775    0.068999066591
     29   L      98             1.8812885   -0.160854151696    0.316423960957
     29   L      99             0.5442493    1.143456437840    0.744308290898

     30   L     100             0.1687145    1.000000000000    1.000000000000

 H         

     31   S     101            18.7311370    0.033494604338
     31   S     102             2.8253944    0.234726953484
     31   S     103             0.6401217    0.813757326146

     32   S     104             0.1612778    1.000000000000

 H         

     33   S     105            18.7311370    0.033494604338
     33   S     106             2.8253944    0.234726953484
     33   S     107             0.6401217    0.813757326146

     34   S     108             0.1612778    1.000000000000

 H         

     35   S     109            18.7311370    0.033494604338
     35   S     110             2.8253944    0.234726953484
     35   S     111             0.6401217    0.813757326146

     36   S     112             0.1612778    1.000000000000

 H         

     37   S     113            18.7311370    0.033494604338
     37   S     114             2.8253944    0.234726953484
     37   S     115             0.6401217    0.813757326146

     38   S     116             0.1612778    1.000000000000

 H         

     39   S     117            18.7311370    0.033494604338
     39   S     118             2.8253944    0.234726953484
     39   S     119             0.6401217    0.813757326146

     40   S     120             0.1612778    1.000000000000

 H         

     41   S     121            18.7311370    0.033494604338
     41   S     122             2.8253944    0.234726953484
     41   S     123             0.6401217    0.813757326146

     42   S     124             0.1612778    1.000000000000

 TOTAL NUMBER OF BASIS SET SHELLS             =   42
 NUMBER OF CARTESIAN GAUSSIAN BASIS FUNCTIONS =  102
 NUMBER OF ELECTRONS                          =   68
 CHARGE OF MOLECULE                           =    0
 SPIN MULTIPLICITY                            =    1
 NUMBER OF OCCUPIED ORBITALS (ALPHA)          =   34
 NUMBER OF OCCUPIED ORBITALS (BETA )          =   34
 TOTAL NUMBER OF ATOMS                        =   16
 THE NUCLEAR REPULSION ENERGY IS      466.9269880960

     $CONTRL OPTIONS
     ---------------
 SCFTYP=RHF          RUNTYP=ENERGY       EXETYP=RUN     
 MPLEVL=       0     CITYP =CIS          CCTYP =NONE         VBTYP =NONE    
 DFTTYP=NONE         TDDFT =NONE    
 MULT  =       1     ICHARG=       0     NZVAR =       0     COORD =UNIQUE  
 PP    =NONE         RELWFN=NONE         LOCAL =NONE         NUMGRD=       F
 ISPHER=      -1     NOSYM =       0     MAXIT =      30     UNITS =ANGS    
 PLTORB=       F     MOLPLT=       F     AIMPAC=       F     FRIEND=        
 NPRINT=       7     IREST =       0     GEOM  =INPUT   
 NORMF =       0     NORMP =       0     ITOL  =      20     ICUT  =       9
 INTTYP=BEST         GRDTYP=BEST         QMTTOL= 1.0E-06

     $SYSTEM OPTIONS
     ---------------
  REPLICATED MEMORY=   100000000 WORDS (ON EVERY NODE).
 DISTRIBUTED MEMDDI=           0 MILLION WORDS IN AGGREGATE,
 MEMDDI DISTRIBUTED OVER   1 PROCESSORS IS           0 WORDS/PROCESSOR.
 TOTAL MEMORY REQUESTED ON EACH PROCESSOR=   100000000 WORDS.
 TIMLIM=      525600.00 MINUTES, OR     365.0 DAYS.
 PARALL= F  BALTYP=  DLB     KDIAG=    0  COREFL= F
 MXSEQ2=     300 MXSEQ3=     150  mem10=         0

          ----------------
          PROPERTIES INPUT
          ----------------

     MOMENTS            FIELD           POTENTIAL          DENSITY
 IEMOM =       1   IEFLD =       0   IEPOT =       0   IEDEN =       0
 WHERE =COMASS     WHERE =NUCLEI     WHERE =NUCLEI     WHERE =NUCLEI  
 OUTPUT=BOTH       OUTPUT=BOTH       OUTPUT=BOTH       OUTPUT=BOTH    
 IEMINT=       0   IEFINT=       0                     IEDINT=       0
                                                       MORB  =       0
          EXTRAPOLATION IN EFFECT
          SOSCF IN EFFECT
 ORBITAL PRINTING OPTION: NPREO=     1   102     2     1

     -------------------------------
     INTEGRAL TRANSFORMATION OPTIONS
     -------------------------------
     NWORD  =            0
     CUTOFF = 1.0E-09     MPTRAN =       0
     DIRTRF =       F     AOINTS =DUP     

          ----------------------
          INTEGRAL INPUT OPTIONS
          ----------------------
 NOPK  =       1 NORDER=       0 SCHWRZ=       T

     ------------------------------
     CI-SINGLES CONTROL INFORMATION
     ------------------------------
     NACORE =       10  NBCORE   =       10
     NSTATE =        6  IROOT    =        1
     HAMTYP = SAPS      SAP MULT =        1
     DIAGZN = DAVID     MXVEC    =       48
     NDAVIT =       50  DAVCVG   = 1.00E-05
     CISPRP =        F  NGSVEC   =       12
     MNMEDG =        F  MNMEOP   =        F
     CHFSLV = CONJG     RDCISV   =        F
     DGAPRX =        T

     NUMBER OF CORE -A-  ORBITALS =    10
     NUMBER OF CORE -B-  ORBITALS =    10
     NUMBER OF OCC. -A-  ORBITALS =    34
     NUMBER OF OCC. -B-  ORBITALS =    34
     NUMBER OF MOLECULAR ORBITALS =   102
     NUMBER OF   BASIS  FUNCTIONS =   102


     ------------------------------------------
     THE POINT GROUP IS C1 , NAXIS= 0, ORDER= 1
     ------------------------------------------

     DIMENSIONS OF THE SYMMETRY SUBSPACES ARE
 A   =  102

 ..... DONE SETTING UP THE RUN .....
 STEP CPU TIME =     0.03 TOTAL CPU TIME =          0.0 (      0.0 MIN)
 TOTAL WALL CLOCK TIME=          0.1 SECONDS, CPU UTILIZATION IS    30.00%

          ********************
          1 ELECTRON INTEGRALS
          ********************
 ...... END OF ONE-ELECTRON INTEGRALS ......
 STEP CPU TIME =     0.01 TOTAL CPU TIME =          0.0 (      0.0 MIN)
 TOTAL WALL CLOCK TIME=          0.1 SECONDS, CPU UTILIZATION IS    33.33%

          -------------
          GUESS OPTIONS
          -------------
          GUESS =HUCKEL            NORB  =       0          NORDER=       0
          MIX   =       F          PRTMO =       F          PUNMO =       F
          TOLZ  = 1.0E-08          TOLE  = 1.0E-05
          SYMDEN=       F          PURIFY=       F

 INITIAL GUESS ORBITALS GENERATED BY HUCKEL   ROUTINE.
 HUCKEL GUESS REQUIRES    100176 WORDS.

 SYMMETRIES FOR INITIAL GUESS ORBITALS FOLLOW.   BOTH SET(S).
    34 ORBITALS ARE OCCUPIED (   10 CORE ORBITALS).
    11=A       12=A       13=A       14=A       15=A       16=A       17=A   
    18=A       19=A       20=A       21=A       22=A       23=A       24=A   
    25=A       26=A       27=A       28=A       29=A       30=A       31=A   
    32=A       33=A       34=A       35=A       36=A       37=A       38=A   
    39=A       40=A       41=A       42=A       43=A       44=A   
 ...... END OF INITIAL ORBITAL SELECTION ......
 STEP CPU TIME =     0.01 TOTAL CPU TIME =          0.0 (      0.0 MIN)
 TOTAL WALL CLOCK TIME=          0.1 SECONDS, CPU UTILIZATION IS    35.71%

                    ----------------------
                    AO INTEGRAL TECHNOLOGY
                    ----------------------
     S,P,L SHELL ROTATED AXIS INTEGRALS, REPROGRAMMED BY
        KAZUYA ISHIMURA (IMS) AND JOSE SIERRA (SYNSTAR).
     S,P,D,L SHELL ROTATED AXIS INTEGRALS PROGRAMMED BY
        KAZUYA ISHIMURA (INSTITUTE FOR MOLECULAR SCIENCE).
     S,P,D,F,G SHELL TO TOTAL QUARTET ANGULAR MOMENTUM SUM 5,
        ERIC PROGRAM BY GRAHAM FLETCHER (ELORET AND NASA ADVANCED
        SUPERCOMPUTING DIVISION, AMES RESEARCH CENTER).
     S,P,D,F,G,L SHELL GENERAL RYS QUADRATURE PROGRAMMED BY
        MICHEL DUPUIS (PACIFIC NORTHWEST NATIONAL LABORATORY).

          --------------------
          2 ELECTRON INTEGRALS
          --------------------

 THE -PK- OPTION IS OFF, THE INTEGRALS ARE NOT IN SUPERMATRIX FORM.
 STORING   15000 INTEGRALS/RECORD ON DISK, USING 12 BYTES/INTEGRAL.
 TWO ELECTRON INTEGRAL EVALUATION REQUIRES   90259 WORDS OF MEMORY.
 SCHWARZ INEQUALITY OVERHEAD:      5151 INTEGRALS, T=        0.00
 II,JST,KST,LST =  1  1  1  1 NREC =         1 INTLOC =    1
 II,JST,KST,LST =  2  1  1  1 NREC =         1 INTLOC =    2
 II,JST,KST,LST =  3  1  1  1 NREC =         1 INTLOC =   34
 II,JST,KST,LST =  4  1  1  1 NREC =         1 INTLOC =  214
 II,JST,KST,LST =  5  1  1  1 NREC =         1 INTLOC =  461
 II,JST,KST,LST =  6  1  1  1 NREC =         1 INTLOC = 2552
 II,JST,KST,LST =  7  1  1  1 NREC =         1 INTLOC = 7195
 II,JST,KST,LST =  8  1  1  1 NREC =         1 INTLOC = 8639
 II,JST,KST,LST =  9  1  1  1 NREC =         2 INTLOC = 4059
 II,JST,KST,LST = 10  1  1  1 NREC =         3 INTLOC = 6679
 II,JST,KST,LST = 11  1  1  1 NREC =         3 INTLOC =12105
 II,JST,KST,LST = 12  1  1  1 NREC =         5 INTLOC =12273
 II,JST,KST,LST = 13  1  1  1 NREC =         8 INTLOC =11349
 II,JST,KST,LST = 14  1  1  1 NREC =         9 INTLOC = 5751
 II,JST,KST,LST = 15  1  1  1 NREC =        13 INTLOC = 1233
 II,JST,KST,LST = 16  1  1  1 NREC =        18 INTLOC =11103
 II,JST,KST,LST = 17  1  1  1 NREC =        20 INTLOC =   51
 II,JST,KST,LST = 18  1  1  1 NREC =        26 INTLOC =13011
 II,JST,KST,LST = 19  1  1  1 NREC =        36 INTLOC =10553
 II,JST,KST,LST = 20  1  1  1 NREC =        38 INTLOC = 8060
 II,JST,KST,LST = 21  1  1  1 NREC =        48 INTLOC = 9612
 II,JST,KST,LST = 22  1  1  1 NREC =        63 INTLOC = 8958
 II,JST,KST,LST = 23  1  1  1 NREC =        66 INTLOC =13071
 II,JST,KST,LST = 24  1  1  1 NREC =        84 INTLOC =13858
 II,JST,KST,LST = 25  1  1  1 NREC =       108 INTLOC = 6778
 II,JST,KST,LST = 26  1  1  1 NREC =       112 INTLOC =12078
 II,JST,KST,LST = 27  1  1  1 NREC =       136 INTLOC = 2697
 II,JST,KST,LST = 28  1  1  1 NREC =       168 INTLOC = 9502
 II,JST,KST,LST = 29  1  1  1 NREC =       174 INTLOC = 8701
 II,JST,KST,LST = 30  1  1  1 NREC =       206 INTLOC =  314
 II,JST,KST,LST = 31  1  1  1 NREC =       250 INTLOC =  474
 II,JST,KST,LST = 32  1  1  1 NREC =       259 INTLOC = 7909
 II,JST,KST,LST = 33  1  1  1 NREC =       273 INTLOC =  585
 II,JST,KST,LST = 34  1  1  1 NREC =       283 INTLOC = 5269
 II,JST,KST,LST = 35  1  1  1 NREC =       297 INTLOC =12383
 II,JST,KST,LST = 36  1  1  1 NREC =       308 INTLOC =11739
 II,JST,KST,LST = 37  1  1  1 NREC =       324 INTLOC = 4006
 II,JST,KST,LST = 38  1  1  1 NREC =       333 INTLOC =12563
 II,JST,KST,LST = 39  1  1  1 NREC =       348 INTLOC =10721
 II,JST,KST,LST = 40  1  1  1 NREC =       359 INTLOC = 1650
 II,JST,KST,LST = 41  1  1  1 NREC =       374 INTLOC =13400
 II,JST,KST,LST = 42  1  1  1 NREC =       385 INTLOC = 7718
 SCHWARZ INEQUALITY TEST SKIPPED      141684 INTEGRAL BLOCKS.
 TOTAL NUMBER OF NONZERO TWO-ELECTRON INTEGRALS =             6016002
        402 INTEGRAL RECORDS WERE STORED ON DISK FILE  8.
  ...... END OF TWO-ELECTRON INTEGRALS .....
 STEP CPU TIME =     0.53 TOTAL CPU TIME =          0.6 (      0.0 MIN)
 TOTAL WALL CLOCK TIME=          0.7 SECONDS, CPU UTILIZATION IS    82.86%

          --------------------------
                 RHF SCF CALCULATION
          --------------------------

     NUCLEAR ENERGY =       466.9269880960
     MAXIT =   30     NPUNCH=    2
     EXTRAP=T  DAMP=F  SHIFT=F  RSTRCT=F  DIIS=F  DEM=F  SOSCF=T
     DENSITY MATRIX CONV=  1.00E-06
     SOSCF WILL OPTIMIZE    2312 ORBITAL ROTATIONS, SOGTOL=   0.250
     MEMORY REQUIRED FOR RHF ITERS=    113504 WORDS.

 ITER EX DEM     TOTAL ENERGY        E CHANGE  DENSITY CHANGE     ORB. GRAD
   1  0  0     -414.2611934664  -414.2611934664   0.382063615   0.000000000
          ---------------START SECOND ORDER SCF---------------
   2  1  0     -415.0820132276    -0.8208197611   0.153710916   0.040831493
   3  2  0     -415.1343029808    -0.0522897533   0.070007072   0.033777661
   4  3  0     -415.1571629758    -0.0228599950   0.011949838   0.003044336
   5  4  0     -415.1576547962    -0.0004918204   0.003298760   0.001858847
   6  5  0     -415.1577420973    -0.0000873011   0.001041374   0.000419429
   7  6  0     -415.1577499833    -0.0000078860   0.000759677   0.000210246
   8  7  0     -415.1577520501    -0.0000020669   0.000381615   0.000084718
   9  8  0     -415.1577524688    -0.0000004186   0.000140626   0.000037278
  10  9  0     -415.1577525575    -0.0000000887   0.000053471   0.000019951
  11 10  0     -415.1577525732    -0.0000000158   0.000022559   0.000007626
  12 11  0     -415.1577525762    -0.0000000030   0.000008433   0.000003245
  13 12  0     -415.1577525768    -0.0000000006   0.000004840   0.000000948
  14 13  0     -415.1577525769    -0.0000000001   0.000001180   0.000000360
  15 14  0     -415.1577525769    -0.0000000000   0.000000440   0.000000172

          -----------------
          DENSITY CONVERGED
          -----------------
     TIME TO FORM FOCK OPERATORS=       0.8 SECONDS (       0.1 SEC/ITER)
     TIME TO SOLVE SCF EQUATIONS=       0.0 SECONDS (       0.0 SEC/ITER)

 FINAL RHF ENERGY IS     -415.1577525769 AFTER  15 ITERATIONS

          ------------
          EIGENVECTORS
          ------------

                      1          2          3          4          5
                  -15.5948   -15.5871   -11.3233   -11.3149   -11.3000
                     A          A          A          A          A   
    1  N  1  S   -0.001366   0.996254  -0.000216   0.000042  -0.000195
    2  N  1  S    0.000336   0.025210   0.000420   0.000372   0.000550
    3  N  1  X   -0.000133  -0.000142   0.000029  -0.000005  -0.000051
    4  N  1  Y    0.000063  -0.002803  -0.000029   0.000040   0.000004
    5  N  1  Z    0.000000   0.000000  -0.000000   0.000000   0.000000
    6  N  1  S   -0.003155  -0.025354  -0.002866  -0.003303  -0.004765
    7  N  1  X    0.000157   0.002716   0.000791  -0.000135   0.002747
    8  N  1  Y    0.001719   0.007668   0.001769   0.001197   0.001307
    9  N  1  Z    0.000000   0.000000  -0.000000   0.000000   0.000000
   10  N  2  S    0.996217   0.001464  -0.000228  -0.000252   0.000031
   11  N  2  S    0.024766   0.000417   0.000278   0.000028   0.000264
   12  N  2  X   -0.002513  -0.000004  -0.000037  -0.000030   0.000034
   13  N  2  Y    0.001363  -0.000127   0.000028  -0.000029   0.000017
   14  N  2  Z    0.000000   0.000000  -0.000000   0.000000   0.000000
   15  N  2  S   -0.021196  -0.003270  -0.001220   0.000363  -0.001975
   16  N  2  X    0.006455   0.001380   0.001454   0.000571   0.000357
   17  N  2  Y   -0.003075  -0.001123  -0.000217   0.000343  -0.001293
   18  N  2  Z    0.000000   0.000000  -0.000000   0.000000   0.000000
   19  C  3  S    0.000062   0.000011  -0.000130   0.012509   0.017598
   20  C  3  S    0.000425   0.000066   0.000267  -0.000520  -0.000669
   21  C  3  X   -0.000024   0.000161   0.000166  -0.000149   0.000226
   22  C  3  Y    0.000106  -0.000132   0.000056   0.000189  -0.000287
   23  C  3  Z    0.000000   0.000000  -0.000000   0.000000   0.000000
   24  C  3  S   -0.005557   0.000646  -0.004248   0.007285   0.012339
   25  C  3  X   -0.004509  -0.006934  -0.008630   0.000462  -0.007857
   26  C  3  Y   -0.001518   0.001343  -0.002515  -0.002075   0.007925
   27  C  3  Z    0.000000   0.000000  -0.000000   0.000000   0.000000
   28  C  4  S    0.000010   0.000128  -0.000480   0.000418   0.995960
   29  C  4  S    0.000167   0.000159  -0.000184   0.000047   0.025948
   30  C  4  X    0.000113  -0.000248  -0.000253   0.000012   0.000301
   31  C  4  Y    0.000054  -0.000203   0.000045   0.000113  -0.000189
   32  C  4  Z    0.000000   0.000000  -0.000000   0.000000   0.000000
   33  C  4  S    0.002757   0.006501   0.001958  -0.000235  -0.022397
   34  C  4  X    0.001078   0.012286   0.008260   0.002350   0.009526
   35  C  4  Y   -0.001146   0.004733  -0.002746  -0.000228   0.008481
   36  C  4  Z    0.000000   0.000000  -0.000000   0.000000   0.000000
   37  C  5  S   -0.000004   0.000004   0.000016   0.000051   0.000164
   38  C  5  S   -0.000064  -0.000037   0.000135   0.000073   0.000264
   39  C  5  X   -0.000159  -0.000104  -0.000121  -0.000165  -0.000177
   40  C  5  Y    0.000018  -0.000105  -0.000044   0.000042  -0.000097
   41  C  5  Z    0.000000   0.000000  -0.000000   0.000000   0.000000
   42  C  5  S   -0.002375  -0.004091  -0.005893  -0.003222  -0.007235
   43  C  5  X    0.000883  -0.000434  -0.001316  -0.000177   0.000400
   44  C  5  Y   -0.001243  -0.001820  -0.002605  -0.001674  -0.005008
   45  C  5  Z    0.000000   0.000000  -0.000000   0.000000   0.000000
   46  C  6  S    0.000004  -0.000024  -0.000014   0.000018   0.012169
   47  C  6  S    0.000012  -0.000175  -0.000165  -0.000120  -0.000798
   48  C  6  X   -0.000021   0.000113   0.000190   0.000054  -0.000075
   49  C  6  Y   -0.000021  -0.000021  -0.000037  -0.000031   0.000118
   50  C  6  Z    0.000000   0.000000  -0.000000   0.000000   0.000000
   51  C  6  S    0.000494   0.005292   0.006569   0.002514   0.011562
   52  C  6  X    0.000149  -0.001087   0.001447   0.000229   0.000452
   53  C  6  Y    0.000287  -0.004236  -0.002676  -0.001302  -0.007184
   54  C  6  Z    0.000000   0.000000  -0.000000   0.000000   0.000000
   55  C  7  S   -0.000007  -0.000018  -0.000029  -0.000044  -0.000313
   56  C  7  S   -0.000047  -0.000149  -0.000157  -0.000213  -0.000360
   57  C  7  X    0.000038  -0.000037   0.000007   0.000011  -0.000012
   58  C  7  Y   -0.000011  -0.000042  -0.000025  -0.000032  -0.000061
   59  C  7  Z    0.000000   0.000000  -0.000000   0.000000   0.000000
   60  C  7  S    0.001377   0.001902   0.002812   0.002306   0.005954
   61  C  7  X    0.000659   0.001248   0.001404   0.001483   0.003268
   62  C  7  Y   -0.000480   0.000570   0.001181   0.000681   0.001453
   63  C  7  Z    0.000000   0.000000  -0.000000   0.000000   0.000000
   64  C  8  S    0.000066   0.000013  -0.001395   0.996086  -0.000674
   65  C  8  S   -0.000470   0.000226  -0.000544   0.024712  -0.000080
   66  C  8  X   -0.000056   0.000007  -0.000105   0.000220   0.000002
   67  C  8  Y   -0.000026   0.000115  -0.000040   0.000752   0.000082
   68  C  8  Z    0.000000   0.000000  -0.000000   0.000000   0.000000
   69  C  8  S    0.011181   0.004557   0.007232  -0.013568   0.004637
   70  C  8  X    0.002145  -0.001519  -0.001098   0.002541  -0.002469
   71  C  8  Y    0.006121   0.000972   0.005203  -0.001587   0.000624
   72  C  8  Z    0.000000   0.000000  -0.000000   0.000000   0.000000
   73  C  9  S    0.000002   0.000006   0.000041   0.000012   0.000136
   74  C  9  S    0.000028  -0.000002   0.000196   0.000054   0.000198
   75  C  9  X    0.000038  -0.000130  -0.000017  -0.000014  -0.000176
   76  C  9  Y    0.000011  -0.000041  -0.000030   0.000023  -0.000089
   77  C  9  Z    0.000000   0.000000  -0.000000   0.000000   0.000000
   78  C  9  S    0.000136  -0.003596  -0.002969  -0.001807  -0.006958
   79  C  9  X   -0.000249  -0.001417  -0.001504  -0.000869  -0.003446
   80  C  9  Y   -0.000056   0.000042   0.001212   0.000503   0.001333
   81  C  9  Z    0.000000   0.000000  -0.000000   0.000000   0.000000
   82  C 10  S    0.000106   0.000106   0.996154   0.001280   0.000427
   83  C 10  S   -0.000086  -0.000025   0.024429  -0.000318  -0.000152
   84  C 10  X   -0.000063  -0.000125  -0.000977   0.000019   0.000072
   85  C 10  Y   -0.000049  -0.000021  -0.000636   0.000169  -0.000023
   86  C 10  Z    0.000000   0.000000  -0.000000   0.000000   0.000000
   87  C 10  S    0.007720   0.007410  -0.009952   0.001597   0.001150
   88  C 10  X   -0.002255  -0.004493   0.001162  -0.002516  -0.001108
   89  C 10  Y   -0.004144  -0.000866   0.000746  -0.000702  -0.002362
   90  C 10  Z    0.000000   0.000000  -0.000000   0.000000   0.000000
   91  H 11  S   -0.000117  -0.000019  -0.000039  -0.000080  -0.000166
   92  H 11  S   -0.000206  -0.000351  -0.000606  -0.000400  -0.001268
   93  H 12  S   -0.000027   0.000264   0.000053   0.000046   0.000192
   94  H 12  S   -0.000222   0.001162   0.000513   0.000277   0.001849
   95  H 13  S    0.000094  -0.000087   0.000270  -0.000237  -0.000058
   96  H 13  S    0.001192  -0.000012   0.001601   0.001834   0.000060
   97  H 14  S   -0.000032   0.000050   0.000061   0.000064   0.000104
   98  H 14  S   -0.000007   0.000368   0.000417   0.000464   0.000854
   99  H 15  S   -0.000027   0.000025  -0.000066  -0.000027  -0.000054
  100  H 15  S   -0.000073  -0.000072  -0.000439  -0.000180  -0.000653
  101  H 16  S    0.000011   0.000056  -0.000315   0.000222   0.000214
  102  H 16  S    0.000770   0.000880   0.001490   0.001013   0.000837

                      6          7          8          9         10
                  -11.2715   -11.2688   -11.2669   -11.2610   -11.2536
                     A          A          A          A          A   
    1  N  1  S   -0.000005   0.000022  -0.000003  -0.000011   0.000007
    2  N  1  S   -0.000060   0.000159  -0.000029  -0.000113  -0.000014
    3  N  1  X   -0.000004   0.000049   0.000058  -0.000024  -0.000001
    4  N  1  Y   -0.000001   0.000001  -0.000003  -0.000010  -0.000016
    5  N  1  Z   -0.000000  -0.000000   0.000000  -0.000000  -0.000000
    6  N  1  S   -0.000300  -0.001004  -0.000365   0.001416   0.000281
    7  N  1  X    0.000108  -0.000236  -0.000703  -0.000163   0.000180
    8  N  1  Y   -0.000066   0.000884   0.000290  -0.000344   0.000011
    9  N  1  Z   -0.000000  -0.000000   0.000000  -0.000000  -0.000000
   10  N  2  S   -0.000006   0.000032   0.000001  -0.000004   0.000004
   11  N  2  S   -0.000068   0.000268   0.000017  -0.000037   0.000025
   12  N  2  X   -0.000005   0.000031  -0.000001  -0.000006   0.000024
   13  N  2  Y    0.000006   0.000029   0.000011   0.000010   0.000002
   14  N  2  Z   -0.000000  -0.000000   0.000000  -0.000000  -0.000000
   15  N  2  S    0.000132  -0.002246  -0.000115   0.000527  -0.000577
   16  N  2  X   -0.000051   0.001088   0.000176  -0.000232   0.000125
   17  N  2  Y   -0.000081  -0.000146   0.000084  -0.000318  -0.000187
   18  N  2  Z   -0.000000  -0.000000   0.000000  -0.000000  -0.000000
   19  C  3  S    0.198687   0.975857   0.008723   0.004501   0.000810
   20  C  3  S    0.004126   0.025825   0.000077   0.000313   0.000121
   21  C  3  X    0.000332   0.000197   0.000129   0.000026   0.000070
   22  C  3  Y    0.000108   0.000118  -0.000034  -0.000028  -0.000078
   23  C  3  Z   -0.000000  -0.000000   0.000000  -0.000000  -0.000000
   24  C  3  S    0.004977  -0.026170   0.001205  -0.005385  -0.004014
   25  C  3  X   -0.005050   0.000257  -0.002925   0.003866   0.000589
   26  C  3  Y    0.000495  -0.003193   0.000193   0.000585  -0.001444
   27  C  3  Z   -0.000000  -0.000000   0.000000  -0.000000  -0.000000
   28  C  4  S   -0.003672  -0.017652  -0.000764   0.000285  -0.012644
   29  C  4  S   -0.000168  -0.001477   0.000020  -0.000273  -0.001478
   30  C  4  X    0.000054   0.000028   0.000079   0.000073   0.000291
   31  C  4  Y    0.000144   0.000240  -0.000007   0.000030  -0.000117
   32  C  4  Z   -0.000000  -0.000000   0.000000  -0.000000  -0.000000
   33  C  4  S   -0.002113   0.010841  -0.003753   0.002980   0.011213
   34  C  4  X    0.001327  -0.000769   0.002676  -0.003474  -0.005179
   35  C  4  Y    0.000864  -0.005164  -0.000675  -0.000457  -0.000197
   36  C  4  Z   -0.000000  -0.000000   0.000000  -0.000000  -0.000000
   37  C  5  S    0.974435  -0.198440  -0.013132  -0.058228   0.000476
   38  C  5  S    0.024538  -0.005974  -0.000335  -0.002679  -0.000232
   39  C  5  X    0.000104  -0.000236   0.000125   0.000185  -0.000036
   40  C  5  Y    0.000393  -0.000250  -0.000088  -0.000183  -0.000068
   41  C  5  Z   -0.000000  -0.000000   0.000000  -0.000000  -0.000000
   42  C  5  S   -0.019582   0.010534  -0.003501   0.013293   0.002530
   43  C  5  X    0.000049   0.001401  -0.000425  -0.001136  -0.000334
   44  C  5  Y   -0.005168   0.003935  -0.001993   0.005675   0.001806
   45  C  5  Z   -0.000000  -0.000000   0.000000  -0.000000  -0.000000
   46  C  6  S   -0.000705  -0.001227   0.043762  -0.008526   0.995133
   47  C  6  S   -0.000240   0.000105  -0.000030   0.000034   0.025501
   48  C  6  X   -0.000011  -0.000074   0.000198   0.000094   0.000066
   49  C  6  Y    0.000069   0.000002   0.000124   0.000056  -0.000615
   50  C  6  Z   -0.000000  -0.000000   0.000000  -0.000000  -0.000000
   51  C  6  S    0.002344  -0.002707   0.009813  -0.006045  -0.022842
   52  C  6  X   -0.000210   0.000579  -0.001022  -0.000157  -0.000503
   53  C  6  Y   -0.001609   0.002114  -0.004324   0.003085   0.006338
   54  C  6  Z   -0.000000  -0.000000   0.000000  -0.000000  -0.000000
   55  C  7  S    0.056513  -0.016914   0.098926   0.989519   0.004192
   56  C  7  S    0.000362  -0.000111   0.001428   0.025454   0.000245
   57  C  7  X   -0.000190  -0.000032  -0.000010   0.000411   0.000019
   58  C  7  Y    0.000055   0.000041  -0.000196   0.000321  -0.000158
   59  C  7  Z   -0.000000  -0.000000   0.000000  -0.000000  -0.000000
   60  C  7  S    0.008053  -0.004436   0.007786  -0.023770  -0.004690
   61  C  7  X    0.004447  -0.002419   0.002562  -0.005989  -0.001984
   62  C  7  Y    0.000568  -0.000911   0.003831  -0.003803  -0.001359
   63  C  7  Z   -0.000000  -0.000000   0.000000  -0.000000  -0.000000
   64  C  8  S   -0.002613  -0.012637  -0.000121  -0.000057  -0.000063
   65  C  8  S   -0.000300  -0.001129  -0.000027  -0.000124  -0.000089
   66  C  8  X    0.000080   0.000241  -0.000044   0.000022  -0.000014
   67  C  8  Y    0.000010  -0.000131   0.000017  -0.000009   0.000029
   68  C  8  Z   -0.000000  -0.000000   0.000000  -0.000000  -0.000000
   69  C  8  S    0.002290   0.006843   0.001670  -0.000798   0.000525
   70  C  8  X   -0.000941  -0.001460  -0.000316  -0.000704  -0.000134
   71  C  8  Y    0.000286   0.002659   0.000649  -0.000755   0.000674
   72  C  8  Z   -0.000000  -0.000000   0.000000  -0.000000  -0.000000
   73  C  9  S    0.005514  -0.009517   0.990141  -0.099750  -0.044883
   74  C  9  S    0.000150  -0.000451   0.025058  -0.003659  -0.002287
   75  C  9  X    0.000010  -0.000039   0.000324  -0.000092  -0.000241
   76  C  9  Y    0.000160  -0.000009  -0.000296   0.000242  -0.000016
   77  C  9  Z   -0.000000  -0.000000   0.000000  -0.000000  -0.000000
   78  C  9  S   -0.003340   0.003498  -0.020457   0.012607   0.010763
   79  C  9  X   -0.001553   0.001796  -0.004601   0.003767   0.005281
   80  C  9  Y    0.000858  -0.000853   0.002993  -0.004640  -0.001213
   81  C  9  Z   -0.000000  -0.000000   0.000000  -0.000000  -0.000000
   82  C 10  S    0.000033   0.000154  -0.000005   0.000002  -0.000037
   83  C 10  S   -0.000079   0.000125   0.000104  -0.000095  -0.000017
   84  C 10  X    0.000038  -0.000015  -0.000044   0.000040  -0.000029
   85  C 10  Y    0.000012  -0.000016   0.000015  -0.000020  -0.000010
   86  C 10  Z   -0.000000  -0.000000   0.000000  -0.000000  -0.000000
   87  C 10  S    0.000052   0.000823   0.000241   0.000194   0.000401
   88  C 10  X   -0.000232  -0.000552   0.000022  -0.000042  -0.000301
   89  C 10  Y   -0.000188  -0.000148   0.000441  -0.000220  -0.000379
   90  C 10  Z   -0.000000  -0.000000   0.000000  -0.000000  -0.000000
   91  H 11  S   -0.000393   0.000026  -0.000032   0.000020   0.000072
   92  H 11  S    0.001024   0.000263  -0.000345   0.000904   0.000469
   93  H 12  S    0.000069  -0.000059  -0.000039  -0.000034  -0.000352
   94  H 12  S    0.000452  -0.000450   0.000866  -0.000508   0.000881
   95  H 13  S   -0.000073  -0.000075   0.000009  -0.000084   0.000032
   96  H 13  S   -0.000141   0.000354   0.000119  -0.000145   0.000235
   97  H 14  S   -0.000007  -0.000027  -0.000031  -0.000401  -0.000022
   98  H 14  S    0.001007  -0.000516   0.001069   0.000691  -0.000358
   99  H 15  S   -0.000023   0.000055  -0.000392   0.000053   0.000049
  100  H 15  S   -0.000237   0.000438   0.001027   0.000925   0.001005
  101  H 16  S    0.000028   0.000027  -0.000039   0.000004   0.000031
  102  H 16  S    0.000169   0.000108  -0.000151   0.000064   0.000161

                     11         12         13         14         15
                   -1.3329    -1.2171    -1.1716    -1.0734    -1.0334
                     A          A          A          A          A   
    1  N  1  S   -0.109953   0.112401  -0.081591   0.006802   0.038419
    2  N  1  S    0.219130  -0.228934   0.168334  -0.014390  -0.081109
    3  N  1  X    0.004550   0.046351   0.032217  -0.052697  -0.104468
    4  N  1  Y   -0.094442   0.068782  -0.052320  -0.005584   0.028747
    5  N  1  Z    0.000000   0.000000  -0.000000  -0.000000  -0.000000
    6  N  1  S    0.285943  -0.297503   0.213526  -0.023924  -0.103856
    7  N  1  X   -0.025257   0.033321   0.002433  -0.016655  -0.023990
    8  N  1  Y   -0.062854   0.046232  -0.035973   0.006244   0.015071
    9  N  1  Z    0.000000   0.000000  -0.000000  -0.000000  -0.000000
   10  N  2  S   -0.114574  -0.130547   0.011510   0.044855  -0.023085
   11  N  2  S    0.231984   0.268972  -0.024255  -0.095343   0.046789
   12  N  2  X   -0.084043  -0.085328   0.025814  -0.022210  -0.032538
   13  N  2  Y    0.056269   0.024298   0.035034  -0.074050  -0.043716
   14  N  2  Z    0.000000   0.000000  -0.000000  -0.000000  -0.000000
   15  N  2  S    0.273040   0.324040  -0.026128  -0.119392   0.071588
   16  N  2  X   -0.055867  -0.055288   0.005393   0.003747  -0.014045
   17  N  2  Y    0.030058   0.015649   0.012728  -0.024953  -0.006921
   18  N  2  Z    0.000000   0.000000  -0.000000  -0.000000  -0.000000
   19  C  3  S   -0.050301   0.022534   0.098391  -0.117020   0.013755
   20  C  3  S    0.098690  -0.046526  -0.197185   0.238850  -0.026986
   21  C  3  X    0.030365   0.037109   0.030421   0.051308   0.067310
   22  C  3  Y    0.020368  -0.049851   0.012679  -0.012566   0.082631
   23  C  3  Z    0.000000   0.000000  -0.000000  -0.000000  -0.000000
   24  C  3  S    0.016803   0.007409  -0.108448   0.146001  -0.028354
   25  C  3  X    0.054431   0.003900   0.038853   0.000668   0.023591
   26  C  3  Y   -0.006762   0.018158  -0.010197  -0.007094   0.010662
   27  C  3  Z    0.000000   0.000000  -0.000000  -0.000000  -0.000000
   28  C  4  S   -0.074296   0.099762   0.028643  -0.040173  -0.080229
   29  C  4  S    0.148427  -0.206120  -0.058532   0.085004   0.168551
   30  C  4  X    0.063759  -0.047504   0.097651   0.044803  -0.093494
   31  C  4  Y    0.007243  -0.040829   0.068669  -0.080725   0.038467
   32  C  4  Z    0.000000   0.000000  -0.000000  -0.000000  -0.000000
   33  C  4  S    0.005525  -0.067572  -0.054030   0.056734   0.141733
   34  C  4  X   -0.044834   0.045716  -0.023195   0.020924  -0.018359
   35  C  4  Y   -0.063928   0.055661  -0.006998  -0.026853   0.006722
   36  C  4  Z    0.000000   0.000000  -0.000000  -0.000000  -0.000000
   37  C  5  S   -0.013297   0.021304   0.097007  -0.018579   0.113655
   38  C  5  S    0.025336  -0.042788  -0.192809   0.038819  -0.230161
   39  C  5  X    0.012088   0.002646  -0.006263   0.100466   0.041808
   40  C  5  Y    0.009879  -0.020428  -0.059240  -0.005674  -0.026900
   41  C  5  Z    0.000000   0.000000  -0.000000  -0.000000  -0.000000
   42  C  5  S    0.056100  -0.015174  -0.099874   0.021685  -0.157366
   43  C  5  X   -0.001313  -0.008792  -0.000041   0.013374   0.003109
   44  C  5  Y    0.025008   0.007808   0.002163  -0.007779   0.015444
   45  C  5  Z    0.000000   0.000000  -0.000000  -0.000000  -0.000000
   46  C  6  S   -0.019195   0.051037   0.060527   0.061495  -0.118454
   47  C  6  S    0.036802  -0.100866  -0.118464  -0.122550   0.239615
   48  C  6  X    0.018679  -0.029323   0.018880   0.070043   0.031526
   49  C  6  Y   -0.012081   0.029149   0.049523   0.026042  -0.035898
   50  C  6  Z    0.000000   0.000000  -0.000000  -0.000000  -0.000000
   51  C  6  S    0.017260  -0.056804  -0.083818  -0.071248   0.165016
   52  C  6  X    0.033188  -0.019559   0.008266   0.014615  -0.010481
   53  C  6  Y    0.014364  -0.012451   0.015611   0.003163   0.006926
   54  C  6  Z    0.000000   0.000000  -0.000000  -0.000000  -0.000000
   55  C  7  S   -0.006213   0.024234   0.089648   0.082866   0.090264
   56  C  7  S    0.013872  -0.047156  -0.176563  -0.166206  -0.180162
   57  C  7  X    0.006051  -0.015853  -0.054637   0.001654  -0.057046
   58  C  7  Y    0.002740  -0.012230  -0.025548  -0.071247   0.054215
   59  C  7  Z    0.000000   0.000000  -0.000000  -0.000000  -0.000000
   60  C  7  S   -0.009785  -0.042675  -0.110621  -0.108085  -0.156448
   61  C  7  X   -0.015972  -0.006740  -0.010574   0.003036  -0.007558
   62  C  7  Y    0.001140  -0.000222  -0.003177  -0.005652   0.000446
   63  C  7  Z    0.000000   0.000000  -0.000000  -0.000000  -0.000000
   64  C  8  S   -0.072159  -0.071290   0.054787  -0.072433  -0.024920
   65  C  8  S    0.145163   0.149117  -0.113147   0.151797   0.053329
   66  C  8  X    0.040301   0.090153   0.031842  -0.102240   0.045051
   67  C  8  Y    0.063141   0.047456  -0.021912   0.020183   0.019140
   68  C  8  Z    0.000000   0.000000  -0.000000  -0.000000  -0.000000
   69  C  8  S    0.001043   0.032447  -0.088206   0.115396   0.022672
   70  C  8  X   -0.014035  -0.027788   0.022059  -0.011927   0.000634
   71  C  8  Y   -0.018688  -0.028061  -0.010243   0.009264  -0.007325
   72  C  8  Z    0.000000   0.000000  -0.000000  -0.000000  -0.000000
   73  C  9  S   -0.007173   0.030076   0.079701   0.114524  -0.029926
   74  C  9  S    0.014523  -0.060863  -0.157571  -0.230032   0.059093
   75  C  9  X    0.007715  -0.024223  -0.040594  -0.031549   0.062610
   76  C  9  Y   -0.001758   0.005476   0.037797   0.034321   0.090519
   77  C  9  Z    0.000000   0.000000  -0.000000  -0.000000  -0.000000
   78  C  9  S    0.030177  -0.042142  -0.085441  -0.160499   0.053471
   79  C  9  X    0.009672  -0.001357  -0.002671  -0.002640   0.007918
   80  C  9  Y    0.011794  -0.007176   0.007389   0.005462  -0.002177
   81  C  9  Z    0.000000   0.000000  -0.000000  -0.000000  -0.000000
   82  C 10  S   -0.102540  -0.014798  -0.052083   0.060018   0.054735
   83  C 10  S    0.211324   0.031369   0.110455  -0.130220  -0.120880
   84  C 10  X   -0.072216   0.066932  -0.056231  -0.009246   0.043723
   85  C 10  Y   -0.049500  -0.130623   0.039523   0.040055  -0.052582
   86  C 10  Z    0.000000   0.000000  -0.000000  -0.000000  -0.000000
   87  C 10  S    0.023389   0.003278   0.037313  -0.060680  -0.077108
   88  C 10  X    0.017915  -0.010334   0.007646  -0.005833  -0.002659
   89  C 10  Y    0.021351   0.013240  -0.003356  -0.005254   0.002157
   90  C 10  Z    0.000000   0.000000  -0.000000  -0.000000  -0.000000
   91  H 11  S    0.005103  -0.005211  -0.039870   0.014151  -0.068946
   92  H 11  S    0.005268   0.003078  -0.002506   0.001773  -0.010288
   93  H 12  S    0.004789  -0.018722  -0.020643  -0.031477   0.066982
   94  H 12  S   -0.004217   0.003747  -0.002721  -0.007474   0.009035
   95  H 13  S    0.021230   0.027552  -0.025866   0.040449   0.010710
   96  H 13  S   -0.000500  -0.003310  -0.006039   0.008548  -0.001718
   97  H 14  S    0.001014  -0.007884  -0.034912  -0.043247  -0.054042
   98  H 14  S   -0.004300  -0.000508  -0.005151  -0.007880  -0.012579
   99  H 15  S    0.001104  -0.009764  -0.031052  -0.060706   0.018075
  100  H 15  S   -0.002088   0.002639  -0.004762  -0.011865   0.006160
  101  H 16  S    0.029294   0.006184   0.022621  -0.034862  -0.034275
  102  H 16  S   -0.003539   0.002726   0.002273  -0.004919  -0.006260

                     16         17         18         19         20
                   -0.9245    -0.8890    -0.8507    -0.7517    -0.7396
                     A          A          A          A          A   
    1  N  1  S   -0.051594   0.014033   0.039361  -0.013998  -0.024618
    2  N  1  S    0.108522  -0.030955  -0.085369   0.034344   0.050012
    3  N  1  X   -0.008489   0.215111  -0.046348  -0.182313   0.140068
    4  N  1  Y   -0.021521  -0.004298  -0.053582  -0.062093  -0.032778
    5  N  1  Z   -0.000000  -0.000000   0.000000   0.000000   0.000000
    6  N  1  S    0.151439  -0.035153  -0.124839   0.012122   0.099758
    7  N  1  X   -0.001016   0.068924  -0.022878  -0.054678   0.042151
    8  N  1  Y   -0.014985  -0.004405  -0.011426  -0.016666  -0.020124
    9  N  1  Z   -0.000000  -0.000000   0.000000   0.000000   0.000000
   10  N  2  S    0.034209   0.050947  -0.000305  -0.028211  -0.021649
   11  N  2  S   -0.074505  -0.108547   0.000515   0.060911   0.049773
   12  N  2  X   -0.097156   0.053763   0.017986   0.002605  -0.112339
   13  N  2  Y   -0.178077   0.097643   0.097129   0.104271  -0.184782
   14  N  2  Z   -0.000000  -0.000000   0.000000   0.000000   0.000000
   15  N  2  S   -0.098932  -0.151020  -0.011429   0.088368   0.055776
   16  N  2  X   -0.024610   0.017457   0.008851  -0.000536  -0.032352
   17  N  2  Y   -0.053646   0.017843   0.033888   0.038777  -0.063588
   18  N  2  Z   -0.000000  -0.000000   0.000000   0.000000   0.000000
   19  C  3  S    0.022921  -0.073632  -0.047856  -0.010718   0.005861
   20  C  3  S   -0.043766   0.146454   0.098425   0.021790  -0.011739
   21  C  3  X    0.159903   0.039262   0.067745  -0.033450  -0.195058
   22  C  3  Y   -0.067459  -0.070956   0.203265  -0.078160   0.108782
   23  C  3  Z   -0.000000  -0.000000   0.000000   0.000000   0.000000
   24  C  3  S   -0.065922   0.159014   0.068353   0.047399  -0.016733
   25  C  3  X    0.029323   0.047935   0.042175  -0.076102  -0.116829
   26  C  3  Y   -0.008529   0.028508   0.024065  -0.036375   0.007710
   27  C  3  Z   -0.000000  -0.000000   0.000000   0.000000   0.000000
   28  C  4  S    0.045145   0.066030  -0.051875   0.017993   0.017689
   29  C  4  S   -0.094206  -0.142882   0.110869  -0.028883  -0.041332
   30  C  4  X    0.135961  -0.054170   0.063996   0.218353  -0.023480
   31  C  4  Y    0.038612  -0.128279  -0.197106   0.043607  -0.134114
   32  C  4  Z   -0.000000  -0.000000   0.000000   0.000000   0.000000
   33  C  4  S   -0.101342  -0.147057   0.095116  -0.069418  -0.068265
   34  C  4  X    0.031793  -0.023676   0.032306   0.127603   0.012185
   35  C  4  Y   -0.005086   0.014186  -0.071308  -0.001849  -0.068183
   36  C  4  Z   -0.000000  -0.000000   0.000000   0.000000   0.000000
   37  C  5  S    0.060382   0.030110   0.081264  -0.051011  -0.026120
   38  C  5  S   -0.123290  -0.063440  -0.168613   0.110125   0.058625
   39  C  5  X   -0.037906   0.146527  -0.023223   0.096309   0.035153
   40  C  5  Y   -0.024719   0.003329   0.078345  -0.094537   0.117212
   41  C  5  Z   -0.000000  -0.000000   0.000000   0.000000   0.000000
   42  C  5  S   -0.097374  -0.032689  -0.130184   0.041561  -0.007111
   43  C  5  X    0.001687   0.054201  -0.010903   0.010990  -0.016659
   44  C  5  Y    0.003808   0.006560   0.060667  -0.091281   0.010921
   45  C  5  Z   -0.000000  -0.000000   0.000000   0.000000   0.000000
   46  C  6  S    0.038134  -0.022113   0.086033   0.020024   0.021927
   47  C  6  S   -0.078354   0.043163  -0.176850  -0.046498  -0.048353
   48  C  6  X   -0.092911  -0.145432   0.009730  -0.144452  -0.108252
   49  C  6  Y    0.022475  -0.011011  -0.065929   0.079218  -0.113293
   50  C  6  Z   -0.000000  -0.000000   0.000000   0.000000   0.000000
   51  C  6  S   -0.045175   0.036106  -0.145162   0.046020  -0.024376
   52  C  6  X    0.000885  -0.036624   0.019455  -0.017427  -0.000317
   53  C  6  Y   -0.004334  -0.008974  -0.036482  -0.019011  -0.060695
   54  C  6  Z   -0.000000  -0.000000   0.000000   0.000000   0.000000
   55  C  7  S   -0.045613   0.067484  -0.045044   0.053350   0.043572
   56  C  7  S    0.094817  -0.136810   0.092877  -0.111889  -0.090962
   57  C  7  X   -0.073164  -0.026559  -0.074257   0.010095   0.168246
   58  C  7  Y    0.089606   0.094594   0.103152   0.012352   0.067080
   59  C  7  Z   -0.000000  -0.000000   0.000000   0.000000   0.000000
   60  C  7  S    0.085548  -0.118276   0.066232  -0.054370  -0.080829
   61  C  7  X   -0.020548   0.011890  -0.036610   0.048404   0.083536
   62  C  7  Y    0.006998   0.011022   0.015865   0.036211   0.055066
   63  C  7  Z   -0.000000  -0.000000   0.000000   0.000000   0.000000
   64  C  8  S   -0.110401  -0.009333   0.048665   0.052085   0.022574
   65  C  8  S    0.236163   0.017563  -0.103106  -0.112436  -0.043902
   66  C  8  X    0.006134  -0.183617  -0.050989  -0.033902   0.251496
   67  C  8  Y   -0.016361  -0.003284   0.112092   0.105931   0.024804
   68  C  8  Z   -0.000000  -0.000000   0.000000   0.000000   0.000000
   69  C  8  S    0.207369   0.005984  -0.117722  -0.102605  -0.016104
   70  C  8  X   -0.009268  -0.032407   0.010869  -0.015324   0.057952
   71  C  8  Y   -0.004766  -0.019756   0.042063   0.065358   0.038903
   72  C  8  Z   -0.000000  -0.000000   0.000000   0.000000   0.000000
   73  C  9  S   -0.076760  -0.069427  -0.026425  -0.055840  -0.021498
   74  C  9  S    0.159144   0.140522   0.054024   0.118233   0.045346
   75  C  9  X   -0.057756   0.024764  -0.080922  -0.080302   0.101627
   76  C  9  Y   -0.049196   0.083796  -0.126774   0.136358   0.020335
   77  C  9  Z   -0.000000  -0.000000   0.000000   0.000000   0.000000
   78  C  9  S    0.137995   0.128157   0.056799   0.075685   0.018146
   79  C  9  X   -0.025539  -0.011484  -0.017138  -0.076229   0.020738
   80  C  9  Y    0.005264   0.013848  -0.019786   0.075486   0.029166
   81  C  9  Z   -0.000000  -0.000000   0.000000   0.000000   0.000000
   82  C 10  S    0.063552  -0.089396   0.000883   0.048478   0.032798
   83  C 10  S   -0.142347   0.196531   0.000084  -0.100624  -0.069854
   84  C 10  X   -0.102327  -0.000276   0.020680  -0.059603  -0.177458
   85  C 10  Y    0.119289   0.086517  -0.097688  -0.204611   0.106958
   86  C 10  Z   -0.000000  -0.000000   0.000000   0.000000   0.000000
   87  C 10  S   -0.111296   0.176624   0.004224  -0.130920  -0.089981
   88  C 10  X   -0.013466   0.000106  -0.016922  -0.033592  -0.044037
   89  C 10  Y    0.000809  -0.001358  -0.018320  -0.052840   0.018275
   90  C 10  Z   -0.000000  -0.000000   0.000000   0.000000   0.000000
   91  H 11  S   -0.036951  -0.027520  -0.105909   0.097129  -0.034236
   92  H 11  S   -0.007109  -0.008931  -0.032215   0.029940  -0.030621
   93  H 12  S   -0.019814   0.014197  -0.100468   0.020957  -0.077351
   94  H 12  S   -0.001425   0.007791  -0.033921   0.024532  -0.031016
   95  H 13  S    0.095043   0.004396  -0.092586  -0.104540  -0.028704
   96  H 13  S    0.028762  -0.007100  -0.034467  -0.037282  -0.002999
   97  H 14  S    0.043202  -0.065255   0.044125  -0.059315  -0.135329
   98  H 14  S    0.010520  -0.020779   0.011634  -0.012274  -0.060398
   99  H 15  S    0.069807   0.065360   0.024783   0.124287  -0.018520
  100  H 15  S    0.016202   0.020061   0.008307   0.046182  -0.019300
  101  H 16  S   -0.059772   0.091727  -0.012141  -0.121224  -0.080721
  102  H 16  S   -0.015483   0.035120   0.001945  -0.052278  -0.038983

                     21         22         23         24         25
                   -0.7098    -0.6545    -0.6308    -0.6138    -0.5945
                     A          A          A          A          A   
    1  N  1  S    0.022332  -0.014199  -0.017339  -0.009388   0.000000
    2  N  1  S   -0.051303   0.030951   0.038385   0.018750   0.000000
    3  N  1  X    0.164912  -0.068087   0.131704  -0.114656   0.000000
    4  N  1  Y   -0.074432  -0.013036   0.076072   0.028132   0.000000
    5  N  1  Z    0.000000  -0.000000   0.000000  -0.000000   0.223344
    6  N  1  S   -0.069884   0.058646   0.067551   0.054542   0.000000
    7  N  1  X    0.051491  -0.033090   0.049895  -0.056028   0.000000
    8  N  1  Y   -0.031633  -0.008056   0.041859   0.014203   0.000000
    9  N  1  Z    0.000000  -0.000000   0.000000  -0.000000   0.137101
   10  N  2  S    0.029768   0.010957  -0.017560  -0.012443   0.000000
   11  N  2  S   -0.064016  -0.025269   0.038585   0.029220   0.000000
   12  N  2  X   -0.144958  -0.006481  -0.097890   0.087649   0.000000
   13  N  2  Y    0.009130   0.170743  -0.055489  -0.071445   0.000000
   14  N  2  Z    0.000000  -0.000000   0.000000  -0.000000   0.204011
   15  N  2  S   -0.121127  -0.027561   0.073410   0.026890   0.000000
   16  N  2  X   -0.054635  -0.009226  -0.042355   0.051897   0.000000
   17  N  2  Y    0.006716   0.075496  -0.017396  -0.030341   0.000000
   18  N  2  Z    0.000000  -0.000000   0.000000  -0.000000   0.128254
   19  C  3  S    0.003280   0.003564  -0.041451  -0.030194   0.000000
   20  C  3  S   -0.004254  -0.007983   0.087637   0.065849   0.000000
   21  C  3  X    0.177832   0.075571  -0.160484  -0.058521   0.000000
   22  C  3  Y    0.101393  -0.197161  -0.127681   0.062386   0.000000
   23  C  3  Z    0.000000  -0.000000   0.000000  -0.000000   0.202859
   24  C  3  S   -0.080016  -0.058392   0.094897   0.077925   0.000000
   25  C  3  X    0.093080   0.056707  -0.032151   0.015446   0.000000
   26  C  3  Y    0.013383  -0.063517  -0.086077  -0.022698   0.000000
   27  C  3  Z    0.000000  -0.000000   0.000000  -0.000000   0.118812
   28  C  4  S    0.025476   0.045216   0.030056   0.016571   0.000000
   29  C  4  S   -0.059788  -0.098054  -0.072580  -0.038531   0.000000
   30  C  4  X   -0.022955   0.051644  -0.142790   0.203681   0.000000
   31  C  4  Y   -0.129630   0.160212   0.069895  -0.075136   0.000000
   32  C  4  Z    0.000000  -0.000000   0.000000  -0.000000   0.221768
   33  C  4  S   -0.031161  -0.097746   0.001725   0.011054   0.000000
   34  C  4  X   -0.023377  -0.021000  -0.099147   0.036655   0.000000
   35  C  4  Y   -0.080491   0.034685   0.029105  -0.046968   0.000000
   36  C  4  Z    0.000000  -0.000000   0.000000  -0.000000   0.134617
   37  C  5  S    0.001034   0.014771   0.008139   0.000552   0.000000
   38  C  5  S   -0.007818  -0.032309  -0.016004   0.003375   0.000000
   39  C  5  X   -0.196008  -0.013797   0.234173  -0.083010   0.000000
   40  C  5  Y   -0.058615   0.162080   0.114591   0.285437   0.000000
   41  C  5  Z    0.000000  -0.000000   0.000000  -0.000000   0.105588
   42  C  5  S    0.062798  -0.004777   0.005801   0.004918   0.000000
   43  C  5  X   -0.052183   0.008910   0.050280  -0.050003   0.000000
   44  C  5  Y    0.017831   0.101369   0.088828   0.160405   0.000000
   45  C  5  Z    0.000000  -0.000000   0.000000  -0.000000   0.055944
   46  C  6  S   -0.055383  -0.019799  -0.017313   0.005434   0.000000
   47  C  6  S    0.114454   0.042832   0.037820  -0.014665   0.000000
   48  C  6  X   -0.090947  -0.028709   0.173242  -0.138091   0.000000
   49  C  6  Y    0.083649  -0.009570   0.164545   0.254693   0.000000
   50  C  6  Z    0.000000  -0.000000   0.000000  -0.000000   0.110906
   51  C  6  S    0.109657   0.001734  -0.012565  -0.035355   0.000000
   52  C  6  X   -0.009598   0.001111   0.034453  -0.044263   0.000000
   53  C  6  Y    0.075051   0.030608   0.114007   0.141712   0.000000
   54  C  6  Z    0.000000  -0.000000   0.000000  -0.000000   0.051990
   55  C  7  S   -0.024313  -0.026170  -0.013889  -0.018699   0.000000
   56  C  7  S    0.051007   0.061157   0.031055   0.041602   0.000000
   57  C  7  X    0.009836   0.160802  -0.177811   0.131445   0.000000
   58  C  7  Y   -0.203366   0.129589   0.070495  -0.119454   0.000000
   59  C  7  Z    0.000000  -0.000000   0.000000  -0.000000   0.072313
   60  C  7  S    0.019001   0.014466  -0.015788   0.005849   0.000000
   61  C  7  X   -0.039963   0.033228  -0.112407   0.015009   0.000000
   62  C  7  Y   -0.081042   0.026217   0.009309  -0.039700   0.000000
   63  C  7  Z    0.000000  -0.000000   0.000000  -0.000000   0.040983
   64  C  8  S   -0.003763  -0.014038   0.023652   0.001489   0.000000
   65  C  8  S    0.013948   0.028698  -0.044485  -0.003266   0.000000
   66  C  8  X   -0.024056  -0.178603   0.061886   0.029308   0.000000
   67  C  8  Y    0.205657   0.044206   0.148454  -0.049506   0.000000
   68  C  8  Z    0.000000  -0.000000   0.000000  -0.000000   0.176573
   69  C  8  S   -0.019650   0.019058  -0.101913  -0.018958   0.000000
   70  C  8  X   -0.002257  -0.059194   0.026453   0.053471   0.000000
   71  C  8  Y    0.099613   0.018523   0.071089  -0.023027   0.000000
   72  C  8  Z    0.000000  -0.000000   0.000000  -0.000000   0.105240
   73  C  9  S    0.037479   0.011958   0.026526   0.017001   0.000000
   74  C  9  S   -0.080958  -0.022892  -0.059852  -0.040301   0.000000
   75  C  9  X    0.103554   0.214169  -0.165507  -0.040705   0.000000
   76  C  9  Y    0.120293  -0.171176  -0.098006   0.119410   0.000000
   77  C  9  Z    0.000000  -0.000000   0.000000  -0.000000   0.073434
   78  C  9  S   -0.034239  -0.004206  -0.025557  -0.007679   0.000000
   79  C  9  X    0.071508   0.123611  -0.025493   0.011698   0.000000
   80  C  9  Y    0.017822  -0.077410  -0.054183   0.041474   0.000000
   81  C  9  Z    0.000000  -0.000000   0.000000  -0.000000   0.045683
   82  C 10  S   -0.002805   0.006840   0.012515   0.008471   0.000000
   83  C 10  S    0.010680  -0.009844  -0.024674  -0.026343   0.000000
   84  C 10  X   -0.171690  -0.074478  -0.133776   0.158047   0.000000
   85  C 10  Y    0.030342  -0.163988   0.040820   0.043212   0.000000
   86  C 10  Z    0.000000  -0.000000   0.000000  -0.000000   0.189778
   87  C 10  S    0.000628  -0.036409  -0.042503  -0.000776   0.000000
   88  C 10  X   -0.086038  -0.053131  -0.054767   0.077449   0.000000
   89  C 10  Y   -0.012784  -0.047569   0.021086   0.024320   0.000000
   90  C 10  Z    0.000000  -0.000000   0.000000  -0.000000   0.112548
   91  H 11  S    0.029221  -0.114261  -0.083920  -0.180861   0.000000
   92  H 11  S    0.027040  -0.064012  -0.046844  -0.113102   0.000000
   93  H 12  S    0.098867   0.016153   0.115831   0.149578   0.000000
   94  H 12  S    0.034451  -0.001986   0.060293   0.090910   0.000000
   95  H 13  S   -0.102347  -0.017127  -0.119115   0.023468   0.000000
   96  H 13  S   -0.045028  -0.012310  -0.070250   0.008791   0.000000
   97  H 14  S    0.074477  -0.089506   0.089340  -0.011324   0.000000
   98  H 14  S    0.029940  -0.074259   0.046077  -0.018906   0.000000
   99  H 15  S   -0.054455  -0.172412   0.025062   0.039401   0.000000
  100  H 15  S   -0.015752  -0.099148   0.033529   0.038825   0.000000
  101  H 16  S   -0.059699  -0.089049  -0.070053   0.081199   0.000000
  102  H 16  S   -0.013989  -0.043465  -0.042372   0.043032   0.000000

                     26         27         28         29         30
                   -0.5910    -0.5464    -0.5285    -0.4946    -0.4629
                     A          A          A          A          A   
    1  N  1  S   -0.015141  -0.035437  -0.028176  -0.000000  -0.054212
    2  N  1  S    0.036447   0.076926   0.066410  -0.000000   0.115330
    3  N  1  X   -0.090678  -0.074228   0.000339  -0.000000   0.164363
    4  N  1  Y    0.176357   0.064811   0.141960  -0.000000   0.257851
    5  N  1  Z    0.000000  -0.000000  -0.000000   0.091914  -0.000000
    6  N  1  S    0.013569   0.153728   0.078699  -0.000000   0.261525
    7  N  1  X   -0.032289  -0.018832   0.014975  -0.000000   0.130905
    8  N  1  Y    0.099685   0.034577   0.086931  -0.000000   0.170140
    9  N  1  Z    0.000000  -0.000000  -0.000000   0.067614  -0.000000
   10  N  2  S   -0.003227  -0.038718  -0.000378  -0.000000  -0.063698
   11  N  2  S    0.006524   0.086454  -0.001429  -0.000000   0.140030
   12  N  2  X   -0.096174   0.118379  -0.031252  -0.000000   0.345024
   13  N  2  Y   -0.156391  -0.103874   0.072073  -0.000000  -0.036309
   14  N  2  Z    0.000000  -0.000000  -0.000000   0.245978  -0.000000
   15  N  2  S    0.005393   0.141319   0.028297  -0.000000   0.277482
   16  N  2  X   -0.041128   0.077422  -0.021774  -0.000000   0.244961
   17  N  2  Y   -0.073532  -0.058442   0.048433  -0.000000  -0.021640
   18  N  2  Z    0.000000  -0.000000  -0.000000   0.179080  -0.000000
   19  C  3  S   -0.004340  -0.032222  -0.003177  -0.000000  -0.026470
   20  C  3  S    0.008432   0.066973   0.003494  -0.000000   0.044274
   21  C  3  X    0.153940  -0.061590   0.013198  -0.000000   0.167549
   22  C  3  Y   -0.049413  -0.045212  -0.131736  -0.000000   0.099385
   23  C  3  Z    0.000000  -0.000000  -0.000000  -0.104602  -0.000000
   24  C  3  S    0.065520   0.118433   0.069054  -0.000000   0.271230
   25  C  3  X   -0.031256  -0.043456   0.008181  -0.000000   0.161087
   26  C  3  Y   -0.020067  -0.058895  -0.036370  -0.000000   0.102902
   27  C  3  Z    0.000000  -0.000000  -0.000000  -0.081423  -0.000000
   28  C  4  S    0.005185   0.021636   0.006017  -0.000000   0.014870
   29  C  4  S   -0.010743  -0.048663  -0.012203  -0.000000  -0.042292
   30  C  4  X    0.015851   0.118376  -0.145244  -0.000000  -0.117023
   31  C  4  Y    0.090209  -0.045046   0.143321  -0.000000  -0.138937
   32  C  4  Z    0.000000  -0.000000  -0.000000  -0.095446  -0.000000
   33  C  4  S   -0.007451  -0.009749  -0.021484  -0.000000  -0.012670
   34  C  4  X    0.051963   0.042009  -0.057952  -0.000000  -0.133950
   35  C  4  Y    0.084173  -0.008569   0.142798  -0.000000   0.095121
   36  C  4  Z    0.000000  -0.000000  -0.000000  -0.049784  -0.000000
   37  C  5  S   -0.012756   0.021990  -0.001104  -0.000000   0.014341
   38  C  5  S    0.031720  -0.046292   0.005108  -0.000000  -0.030556
   39  C  5  X   -0.055512   0.182287  -0.078355  -0.000000  -0.135277
   40  C  5  Y   -0.062154  -0.046107   0.179255  -0.000000  -0.075885
   41  C  5  Z    0.000000  -0.000000  -0.000000  -0.181098  -0.000000
   42  C  5  S   -0.045752  -0.061342  -0.017459  -0.000000  -0.030680
   43  C  5  X   -0.038321   0.046241  -0.040805  -0.000000  -0.033660
   44  C  5  Y   -0.084517   0.001773   0.110595  -0.000000  -0.056352
   45  C  5  Z    0.000000  -0.000000  -0.000000  -0.122945  -0.000000
   46  C  6  S    0.011729  -0.013258   0.005748  -0.000000   0.005456
   47  C  6  S   -0.023438   0.031641  -0.007501  -0.000000  -0.007006
   48  C  6  X    0.025119  -0.256331   0.031934  -0.000000   0.032332
   49  C  6  Y   -0.024655  -0.109232  -0.246128  -0.000000   0.045191
   50  C  6  Z    0.000000  -0.000000  -0.000000  -0.167445  -0.000000
   51  C  6  S   -0.016044  -0.024959  -0.061446  -0.000000  -0.129851
   52  C  6  X   -0.001459  -0.092477  -0.018160  -0.000000  -0.048985
   53  C  6  Y   -0.038662  -0.023093  -0.171981  -0.000000   0.047054
   54  C  6  Z    0.000000  -0.000000  -0.000000  -0.118749  -0.000000
   55  C  7  S    0.005611  -0.003793   0.008017  -0.000000  -0.005401
   56  C  7  S   -0.011321   0.006661  -0.018674  -0.000000   0.010605
   57  C  7  X    0.107675  -0.252455   0.036937  -0.000000   0.073887
   58  C  7  Y    0.084658  -0.062912  -0.275570  -0.000000   0.030331
   59  C  7  Z    0.000000  -0.000000  -0.000000  -0.219625  -0.000000
   60  C  7  S    0.015175  -0.016383  -0.024652  -0.000000   0.011295
   61  C  7  X    0.086342  -0.168323   0.002552  -0.000000   0.066711
   62  C  7  Y    0.056704  -0.061502  -0.120556  -0.000000   0.007969
   63  C  7  Z    0.000000  -0.000000  -0.000000  -0.150376  -0.000000
   64  C  8  S   -0.010782   0.024716  -0.015943  -0.000000   0.018924
   65  C  8  S    0.030701  -0.054800   0.037257  -0.000000  -0.044313
   66  C  8  X    0.007632   0.014089  -0.088886  -0.000000  -0.179282
   67  C  8  Y    0.327267   0.027994   0.060536  -0.000000  -0.033229
   68  C  8  Z    0.000000  -0.000000  -0.000000   0.092334  -0.000000
   69  C  8  S    0.042994  -0.068359   0.030871  -0.000000  -0.087194
   70  C  8  X   -0.000066   0.036188  -0.034523  -0.000000   0.013280
   71  C  8  Y    0.197331   0.017956   0.021429  -0.000000  -0.086922
   72  C  8  Z    0.000000  -0.000000  -0.000000   0.075218  -0.000000
   73  C  9  S   -0.016758   0.001003   0.000106  -0.000000  -0.000854
   74  C  9  S    0.038668  -0.003491  -0.003329  -0.000000  -0.001873
   75  C  9  X    0.006976   0.286990  -0.045704  -0.000000  -0.047538
   76  C  9  Y   -0.066188   0.056598   0.277132  -0.000000  -0.047549
   77  C  9  Z    0.000000  -0.000000  -0.000000  -0.211626  -0.000000
   78  C  9  S    0.000563   0.031410  -0.005131  -0.000000   0.008177
   79  C  9  X   -0.022174   0.185295  -0.061930  -0.000000  -0.019029
   80  C  9  Y   -0.011350  -0.016802   0.118895  -0.000000  -0.047422
   81  C  9  Z    0.000000  -0.000000  -0.000000  -0.142024  -0.000000
   82  C 10  S    0.012921   0.029501   0.006792  -0.000000   0.039800
   83  C 10  S   -0.039666  -0.071347  -0.014785  -0.000000  -0.095554
   84  C 10  X    0.233165   0.077176  -0.016644  -0.000000  -0.089439
   85  C 10  Y    0.179753   0.034637  -0.053040  -0.000000  -0.026292
   86  C 10  Z    0.000000  -0.000000  -0.000000   0.199040  -0.000000
   87  C 10  S    0.000929  -0.079626  -0.032385  -0.000000  -0.130644
   88  C 10  X    0.119215   0.065643  -0.021133  -0.000000  -0.030352
   89  C 10  Y    0.103070   0.013790   0.007049  -0.000000  -0.026730
   90  C 10  Z    0.000000  -0.000000  -0.000000   0.132805  -0.000000
   91  H 11  S    0.051869   0.000396  -0.134592  -0.000000   0.041497
   92  H 11  S    0.013978   0.011461  -0.101668  -0.000000   0.037096
   93  H 12  S   -0.026655  -0.052452  -0.178815  -0.000000   0.035731
   94  H 12  S   -0.005442  -0.041962  -0.108912  -0.000000   0.043480
   95  H 13  S   -0.197711  -0.057557  -0.029704  -0.000000  -0.017042
   96  H 13  S   -0.117035  -0.042674  -0.031766  -0.000000  -0.043937
   97  H 14  S   -0.095550   0.184252   0.066421  -0.000000  -0.059335
   98  H 14  S   -0.055656   0.124051   0.052627  -0.000000  -0.045916
   99  H 15  S   -0.004073  -0.157214   0.133481  -0.000000   0.015033
  100  H 15  S   -0.014166  -0.099531   0.097310  -0.000000   0.018993
  101  H 16  S    0.162748   0.010095  -0.041196  -0.000000  -0.152698
  102  H 16  S    0.090222  -0.003584  -0.031807  -0.000000  -0.130135

                     31         32         33         34         35
                   -0.4411    -0.4063    -0.3660    -0.3185     0.0535
                     A          A          A          A          A   
    1  N  1  S    0.000000  -0.042098  -0.000000  -0.000000  -0.000000
    2  N  1  S    0.000000   0.106630  -0.000000  -0.000000  -0.000000
    3  N  1  X    0.000000  -0.056071  -0.000000  -0.000000  -0.000000
    4  N  1  Y    0.000000   0.402783  -0.000000  -0.000000  -0.000000
    5  N  1  Z    0.306452   0.000000   0.020274  -0.216135   0.227489
    6  N  1  S    0.000000   0.047418  -0.000000  -0.000000  -0.000000
    7  N  1  X    0.000000  -0.026474  -0.000000  -0.000000  -0.000000
    8  N  1  Y    0.000000   0.330278  -0.000000  -0.000000  -0.000000
    9  N  1  Z    0.239784   0.000000   0.019488  -0.201469   0.304791
   10  N  2  S    0.000000   0.036762  -0.000000  -0.000000  -0.000000
   11  N  2  S    0.000000  -0.091944  -0.000000  -0.000000  -0.000000
   12  N  2  X    0.000000  -0.275143  -0.000000  -0.000000  -0.000000
   13  N  2  Y    0.000000   0.247196  -0.000000  -0.000000  -0.000000
   14  N  2  Z   -0.199032   0.000000  -0.210546   0.102319  -0.181870
   15  N  2  S    0.000000  -0.047029  -0.000000  -0.000000  -0.000000
   16  N  2  X    0.000000  -0.229761  -0.000000  -0.000000  -0.000000
   17  N  2  Y    0.000000   0.198943  -0.000000  -0.000000  -0.000000
   18  N  2  Z   -0.162476   0.000000  -0.183169   0.104560  -0.249604
   19  C  3  S    0.000000  -0.003190  -0.000000  -0.000000  -0.000000
   20  C  3  S    0.000000   0.002086  -0.000000  -0.000000  -0.000000
   21  C  3  X    0.000000  -0.085270  -0.000000  -0.000000  -0.000000
   22  C  3  Y    0.000000   0.178429  -0.000000  -0.000000  -0.000000
   23  C  3  Z   -0.151643   0.000000   0.289312   0.015602   0.014459
[...]
   43  C  5  X    0.965017  -0.107905   0.629213   1.159753   1.960386
   44  C  5  Y   -0.284404   1.216137  -0.349281   0.519149  -0.730882
   45  C  5  Z    0.069939   0.217361   0.144498   0.342845  -0.406080
   46  C  6  S   -0.026577  -0.001749  -0.002280   0.054616  -0.000943
   47  C  6  S   -0.255336   0.191063  -0.092947   0.448815  -0.250159
   48  C  6  X    0.064501   0.074178  -0.084140   0.100923  -0.218195
   49  C  6  Y    0.038757  -0.051672  -0.160466  -0.448981  -0.149019
   50  C  6  Z    0.129621   0.000230  -0.076791  -0.100308  -0.126791
   51  C  6  S    1.891770  -1.207460   1.518480  -4.654665   2.442160
   52  C  6  X    0.119058  -1.118775   0.318840  -0.771214   1.037673
   53  C  6  Y   -1.008050   1.063302   0.184343   5.673924  -0.519802
   54  C  6  Z   -0.101643   0.012134   0.009361  -0.168172   0.351082
   55  C  7  S    0.016079   0.029671   0.020273   0.030556  -0.021504
   56  C  7  S    0.096683  -0.357781   0.055667   0.395425   0.065954
   57  C  7  X    0.363332  -0.191015   0.234153  -0.040603   0.198970
   58  C  7  Y    0.074705   0.182378  -0.011147  -0.068105   0.202018
   59  C  7  Z    0.016868   0.101453   0.018102   0.029207  -0.168124
   60  C  7  S    0.598323  -0.791642  -0.310571  -2.786898   2.325952
   61  C  7  X   -0.247505   0.395337  -0.125721  -0.958912   0.989031
   62  C  7  Y    0.441542  -0.814894  -0.134388  -1.424198  -0.694422
   63  C  7  Z   -0.036152  -0.160832  -0.092058  -0.247415   0.371218
   64  C  8  S    0.010660   0.039209   0.018725  -0.032914   0.000983
   65  C  8  S    0.184307   0.504470  -0.152147  -0.192207   0.396554
   66  C  8  X    0.118898  -0.070217  -0.223281  -0.013053  -0.193041
   67  C  8  Y    0.002289   0.153923   0.083477  -0.012263   0.032535
   68  C  8  Z    0.331604   0.105749   0.057135   0.089526   0.008893
   69  C  8  S   -0.289235  -1.665809  -0.467839   1.575624   1.943479
   70  C  8  X   -0.621357   1.134121  -1.554828  -0.020660   1.788994
   71  C  8  Y   -0.826059  -0.300235  -0.299014  -0.451954   0.705517
   72  C  8  Z   -0.237041  -0.029230   0.003873   0.072524  -0.284600
   73  C  9  S    0.012529   0.027660   0.008904  -0.039342   0.003417
   74  C  9  S    0.140490  -0.003590   0.075810   0.020965   0.390355
   75  C  9  X   -0.057075   0.217398   0.248791  -0.159748   0.145909
   76  C  9  Y    0.102456  -0.186780   0.106865   0.009530  -0.101331
   77  C  9  Z   -0.016479   0.067828  -0.060981  -0.218074   0.033117
   78  C  9  S   -1.293274   0.418227  -0.129358   3.835001  -0.532161
   79  C  9  X   -0.777591  -0.130632  -0.435087   2.792659  -1.238775
   80  C  9  Y    0.496833  -0.944793  -0.721052  -1.974424   0.737754
   81  C  9  Z    0.033708  -0.046195   0.099237   0.380692  -0.243938
   82  C 10  S   -0.017785  -0.029876  -0.002272  -0.018381   0.008181
   83  C 10  S    0.030491  -0.171670  -0.078957  -0.018141   0.328028
   84  C 10  X    0.003605   0.060864   0.220838   0.004796   0.070919
   85  C 10  Y    0.208071   0.062700   0.315615  -0.119023  -0.061455
   86  C 10  Z    0.284277   0.042733  -0.046919  -0.029483   0.011452
   87  C 10  S   -0.270294  -0.046687   0.728817   1.087605  -0.683860
   88  C 10  X    0.209980   0.006053   0.096339  -0.794863  -1.205063
   89  C 10  Y   -0.619855  -0.818121   0.972831   0.570279   1.300124
   90  C 10  Z   -0.138976   0.019365   0.081673   0.111636  -0.105930
   91  H 11  S   -0.002850  -0.004932  -0.511780  -0.408760  -0.119914
   92  H 11  S   -0.337645   0.753901  -0.037343   0.229140  -0.120286
   93  H 12  S   -0.015670  -0.219420   0.008924  -0.344563   0.239726
   94  H 12  S    0.131421  -0.171876  -0.255355  -2.460057  -0.345299
   95  H 13  S   -0.276315   0.384728   0.331381  -0.270264   0.076170
   96  H 13  S   -0.031865  -0.128514  -0.193078  -0.454760  -0.026625
   97  H 14  S    0.083758   0.493962   0.312985  -0.096263   0.176478
   98  H 14  S    0.155934  -0.315467  -0.321344  -0.192401  -0.210664
   99  H 15  S   -0.297656   0.595600   0.083761   0.068326  -0.227124
  100  H 15  S   -0.219073  -0.124997   0.134829   1.196779  -0.445310
  101  H 16  S   -0.436638  -0.218642  -0.398139  -0.052362  -0.017649
  102  H 16  S    0.577927   0.444231  -0.290975   0.097119   0.404571

                    101        102

                   -0.0000    -0.0000

    1  N  1  S   -0.011618   0.025343
    2  N  1  S   -0.108773   0.362852
    3  N  1  X    0.024586   0.031368
    4  N  1  Y   -0.047097  -0.002357
    5  N  1  Z    0.190310  -0.041892
    6  N  1  S    0.294209  -1.348151
    7  N  1  X   -1.353557   0.465977
    8  N  1  Y    0.194522   0.518810
    9  N  1  Z   -0.188322  -0.001514
   10  N  2  S    0.014509   0.004646
   11  N  2  S   -0.147635   0.147626
   12  N  2  X   -0.118954   0.034681
   13  N  2  Y   -0.010334  -0.080369
   14  N  2  Z   -0.172753   0.031088
   15  N  2  S    0.153439  -0.853786
   16  N  2  X    0.394014  -0.014202
   17  N  2  Y    0.028575  -0.109759
   18  N  2  Z    0.121376  -0.070009
   19  C  3  S    0.032518   0.010930
   20  C  3  S   -0.128891   0.297583
   21  C  3  X   -0.083105   0.286925
   22  C  3  Y   -0.175212  -0.014629
   23  C  3  Z   -0.116597  -0.339548
   24  C  3  S   -2.254673  -0.564968
   25  C  3  X    0.669848  -1.966347
   26  C  3  Y   -0.148135   0.747670
   27  C  3  Z   -0.003424   0.250971
   28  C  4  S    0.005956  -0.008579
   29  C  4  S   -0.499968   0.139416
   30  C  4  X   -0.202978   0.333841
   31  C  4  Y    0.180907   0.080972
   32  C  4  Z    0.159096  -0.171164
   33  C  4  S    0.947497   0.486621
   34  C  4  X   -0.995245   0.834644
   35  C  4  Y   -2.030145   0.928120
   36  C  4  Z   -0.087176   0.123025
   37  C  5  S   -0.004475  -0.002740
   38  C  5  S    0.054224  -0.104706
   39  C  5  X    0.099486   0.027569
   40  C  5  Y    0.064843   0.009908
   41  C  5  Z   -0.246278  -0.406537
   42  C  5  S    1.338701  -0.592518
   43  C  5  X   -0.070464   0.058928
   44  C  5  Y    0.817947  -0.925368
   45  C  5  Z    0.316488   0.328819
   46  C  6  S    0.017751   0.009576
   47  C  6  S   -0.036032   0.260918
   48  C  6  X    0.239289   0.112612
   49  C  6  Y   -0.139400  -0.009129
   50  C  6  Z    0.362537  -0.138355
   51  C  6  S   -0.439715   0.174673
   52  C  6  X   -0.175242  -0.763728
   53  C  6  Y    1.543637  -0.983628
   54  C  6  Z   -0.282524   0.053626
   55  C  7  S    0.025148  -0.021637
   56  C  7  S    0.122825  -0.312422
   57  C  7  X    0.081566  -0.011870
   58  C  7  Y    0.004489  -0.079322
   59  C  7  Z    0.094606  -0.195553
   60  C  7  S   -1.652240   1.628476
   61  C  7  X   -0.910183   0.210285
   62  C  7  Y   -0.429921   0.749646
   63  C  7  Z   -0.093868   0.107659
   64  C  8  S   -0.004070  -0.018315
   65  C  8  S   -0.165267   0.060525
   66  C  8  X   -0.070490  -0.025144
   67  C  8  Y    0.043604  -0.176631
   68  C  8  Z   -0.370953  -0.244297
   69  C  8  S    0.631199   1.455695
   70  C  8  X   -0.135844  -0.542094
   71  C  8  Y   -0.269100   0.877959
   72  C  8  Z    0.384772   0.190053
   73  C  9  S   -0.006771   0.038715
   74  C  9  S   -0.130367   0.221309
   75  C  9  X   -0.016335   0.199414
   76  C  9  Y    0.040412   0.085093
   77  C  9  Z    0.326381  -0.087403
   78  C  9  S    1.214731  -2.178092
   79  C  9  X    0.958828  -0.705085
   80  C  9  Y   -0.786571   0.343628
   81  C  9  Z   -0.297133   0.055299
   82  C 10  S   -0.001840  -0.027728
   83  C 10  S   -0.417850   0.215112
   84  C 10  X    0.215424  -0.077646
   85  C 10  Y    0.028239   0.192538
   86  C 10  Z    0.027212   0.000637
   87  C 10  S    1.397167   0.253783
   88  C 10  X   -0.779397   0.154451
   89  C 10  Y    0.575300  -0.572272
   90  C 10  Z   -0.033462  -0.008942
   91  H 11  S    0.161480  -0.043456
   92  H 11  S    0.228473  -0.439490
   93  H 12  S    0.172888   0.309535
   94  H 12  S   -0.930810   0.403861
   95  H 13  S    0.073780  -0.339856
   96  H 13  S   -0.418862   0.695832
   97  H 14  S    0.009585  -0.315405
   98  H 14  S   -0.185527   0.246371
   99  H 15  S    0.102290   0.215678
  100  H 15  S    0.426546  -0.183318
  101  H 16  S   -0.233911  -0.401123
  102  H 16  S    0.078829   0.307489

 THE CIS NATURAL ORBITALS HAVE BEEN PUNCHED.

 ..... DONE WITH CIS ENERGY .....

 STEP CPU TIME =     6.12 TOTAL CPU TIME =          7.6 (      0.1 MIN)
 TOTAL WALL CLOCK TIME=          7.8 SECONDS, CPU UTILIZATION IS    97.94%

     -------------------------------------------------------------
     CIS   PROPERTIES...FOR THE WAVEFUNCTION OF EXCITED STATE    1
                 USING THE EXPECTATION VALUE DENSITY
     -------------------------------------------------------------

          -----------------
          ENERGY COMPONENTS
          -----------------

         WAVEFUNCTION NORMALIZATION =       1.0000000000

                ONE ELECTRON ENERGY =   -1486.3263547092
                TWO ELECTRON ENERGY =     604.4341470194
           NUCLEAR REPULSION ENERGY =     466.9269880960
                                      ------------------
                       TOTAL ENERGY =    -414.9652195937

 ELECTRON-ELECTRON POTENTIAL ENERGY =     604.4341470194
  NUCLEUS-ELECTRON POTENTIAL ENERGY =   -1901.8962502490
   NUCLEUS-NUCLEUS POTENTIAL ENERGY =     466.9269880960
                                      ------------------
             TOTAL POTENTIAL ENERGY =    -830.5351151335
               TOTAL KINETIC ENERGY =     415.5698955398
                 VIRIAL RATIO (V/T) =       1.9985449477

          ---------------------------------------
          MULLIKEN AND LOWDIN POPULATION ANALYSES
          ---------------------------------------

               ----- POPULATIONS IN EACH AO -----
                             MULLIKEN      LOWDIN
              1  N  1  S      1.99828     1.99320
              2  N  1  S      0.79489     0.73836
              3  N  1  X      0.75863     0.71224
              4  N  1  Y      0.97357     0.94973
              5  N  1  Z      0.63720     0.60650
              6  N  1  S      1.02881     0.57384
              7  N  1  X      0.22296     0.40844
              8  N  1  Y      0.58921     0.66919
              9  N  1  Z      0.54749     0.57659
             10  N  2  S      1.99821     1.99336
             11  N  2  S      0.80214     0.74209
             12  N  2  X      0.92323     0.89216
             13  N  2  Y      0.81024     0.76872
             14  N  2  Z      0.65574     0.62287
             15  N  2  S      0.99041     0.58164
             16  N  2  X      0.50652     0.60899
             17  N  2  Y      0.29638     0.47336
             18  N  2  Z      0.57074     0.59477
             19  C  3  S      1.99779     1.98825
             20  C  3  S      0.69977     0.54379
             21  C  3  X      0.76273     0.71231
             22  C  3  Y      0.76115     0.71655
             23  C  3  Z      0.56079     0.52073
             24  C  3  S      0.41136     0.36079
             25  C  3  X      0.27083     0.37072
             26  C  3  Y      0.10686     0.36911
             27  C  3  Z      0.48603     0.50542
             28  C  4  S      1.99781     1.98754
             29  C  4  S      0.72062     0.54545
             30  C  4  X      0.76108     0.70874
             31  C  4  Y      0.76647     0.70928
             32  C  4  Z      0.51742     0.47409
             33  C  4  S      0.33844     0.34556
             34  C  4  X      0.10331     0.34324
             35  C  4  Y      0.18870     0.36684
             36  C  4  Z      0.41164     0.45081
             37  C  5  S      1.99775     1.98900
             38  C  5  S      0.70209     0.55157
             39  C  5  X      0.75513     0.70306
             40  C  5  Y      0.73965     0.67342
             41  C  5  Z      0.48695     0.46245
             42  C  5  S      0.43524     0.39471
             43  C  5  X      0.15158     0.36186
             44  C  5  Y      0.39481     0.43407
             45  C  5  Z      0.44719     0.47965
             46  C  6  S      1.99776     1.98901
             47  C  6  S      0.69948     0.55519
             48  C  6  X      0.75254     0.70390
             49  C  6  Y      0.74461     0.67995
             50  C  6  Z      0.47014     0.44524
             51  C  6  S      0.46672     0.39631
             52  C  6  X      0.13080     0.35527
             53  C  6  Y      0.38147     0.43299
             54  C  6  Z      0.43338     0.46384
             55  C  7  S      1.99775     1.98917
             56  C  7  S      0.69704     0.54971
             57  C  7  X      0.74430     0.68191
             58  C  7  Y      0.75417     0.69925
             59  C  7  Z      0.47704     0.44499
             60  C  7  S      0.49199     0.39878
             61  C  7  X      0.33089     0.41810
             62  C  7  Y      0.19486     0.38528
             63  C  7  Z      0.43776     0.46889
             64  C  8  S      1.99768     1.98843
             65  C  8  S      0.72400     0.56630
             66  C  8  X      0.75726     0.70262
             67  C  8  Y      0.76290     0.69631
             68  C  8  Z      0.52454     0.49729
             69  C  8  S      0.41311     0.38850
             70  C  8  X      0.10266     0.34274
             71  C  8  Y      0.32519     0.41474
             72  C  8  Z      0.45360     0.49170
             73  C  9  S      1.99778     1.98923
             74  C  9  S      0.70289     0.55378
             75  C  9  X      0.75063     0.68742
             76  C  9  Y      0.75907     0.70269
             77  C  9  Z      0.53481     0.50586
             78  C  9  S      0.48493     0.39989
             79  C  9  X      0.33642     0.41912
             80  C  9  Y      0.19361     0.38495
             81  C  9  Z      0.49268     0.52209
             82  C 10  S      1.99757     1.98755
             83  C 10  S      0.73121     0.56484
             84  C 10  X      0.75650     0.69439
             85  C 10  Y      0.73178     0.67827
             86  C 10  Z      0.47695     0.44196
             87  C 10  S      0.36384     0.38524
             88  C 10  X      0.22561     0.38451
             89  C 10  Y      0.10156     0.35939
             90  C 10  Z      0.37792     0.42426
             91  H 11  S      0.53184     0.51066
             92  H 11  S      0.23982     0.35683
             93  H 12  S      0.52728     0.50572
             94  H 12  S      0.23892     0.35196
             95  H 13  S      0.53651     0.51774
             96  H 13  S      0.23097     0.34790
             97  H 14  S      0.53357     0.51240
             98  H 14  S      0.25012     0.35678
             99  H 15  S      0.53398     0.51232
            100  H 15  S      0.24576     0.35421
            101  H 16  S      0.53945     0.52094
            102  H 16  S      0.23457     0.34567

          ----- MULLIKEN ATOMIC OVERLAP POPULATIONS -----
          (OFF-DIAGONAL ELEMENTS NEED TO BE MULTIPLIED BY 2)

             1           2           3           4           5

    1    7.1482353
    2   -0.1073444   7.1025951
    3   -0.1278563  -0.0760195   5.6759268
    4    0.3997730  -0.0194974   0.2068281   5.0335264
    5    0.0025539   0.0019813   0.3747309   0.0108793   5.0241838
    6   -0.0586989  -0.0004254  -0.1154088   0.4341752  -0.0192209
    7   -0.0001785  -0.0001309  -0.0557857  -0.0268918   0.4532059
    8   -0.0112400   0.3643839   0.2905056  -0.0558648  -0.0219020
    9    0.0036427  -0.0000316  -0.0169885  -0.0688537  -0.0798217
   10    0.3578224   0.3822383  -0.0002904  -0.1028071   0.0023189
   11   -0.0000754   0.0000194  -0.0329906   0.0002643   0.3713103
   12    0.0037428   0.0000362   0.0050937  -0.0160975   0.0000536
   13   -0.0005075  -0.0356668  -0.0705496   0.0009506   0.0070180
   14    0.0000009   0.0000007   0.0023074   0.0002525  -0.0194111
   15   -0.0000746  -0.0000001   0.0001790   0.0022899   0.0025089
   16   -0.0587508  -0.0585356  -0.0023792   0.0065619  -0.0000018

             6           7           8           9          10

    6    5.0962166
    7   -0.0566149   4.9809568
    8    0.0051980   0.0043346   5.1915199
    9    0.4426147   0.4955784   0.0003412   5.1530952
   10    0.0040774  -0.0000817  -0.1235788  -0.0001707   4.8182928
   11    0.0003358  -0.0164848   0.0028152   0.0020584   0.0000226
   12    0.3603696   0.0020959  -0.0001543  -0.0266124   0.0002092
   13   -0.0000718   0.0001446   0.4086002  -0.0000032   0.0040163
   14    0.0019843   0.3716104  -0.0000812  -0.0230655  -0.0000005
   15   -0.0177917  -0.0259530  -0.0000073   0.3710287   0.0000024
   16    0.0001610   0.0000001   0.0060734   0.0000000   0.4208610

            11          12          13          14          15

   11    0.4430154
   12    0.0000076   0.4379476
   13    0.0015677   0.0000017   0.4519644
   14   -0.0001057  -0.0000941  -0.0000019   0.4503033
   15   -0.0001048  -0.0003960  -0.0000001  -0.0000093   0.4480612
   16   -0.0000002  -0.0000067   0.0000259   0.0000000  -0.0000000

            16

   16    0.4600070

          TOTAL MULLIKEN AND LOWDIN ATOMIC POPULATIONS
       ATOM         MULL.POP.    CHARGE          LOW.POP.     CHARGE
    1 N             7.551044   -0.551044         7.228093   -0.228093
    2 N             7.553603   -0.553603         7.277961   -0.277961
    3 C             6.057303   -0.057303         6.087662   -0.087662
    4 C             5.805489    0.194511         5.931547    0.068453
    5 C             6.110387   -0.110387         6.049795   -0.049795
    6 C             6.076900   -0.076900         6.021683   -0.021683
    7 C             6.125805   -0.125805         6.036081   -0.036081
    8 C             6.060944   -0.060944         6.088635   -0.088635
    9 C             6.252812   -0.252812         6.165018   -0.165018
   10 C             5.762932    0.237068         5.920406    0.079594
   11 H             0.771655    0.228345         0.867490    0.132510
   12 H             0.766197    0.233803         0.857682    0.142318
   13 H             0.767488    0.232512         0.865638    0.134362
   14 H             0.783690    0.216310         0.869180    0.130820
   15 H             0.779733    0.220267         0.866526    0.133474
   16 H             0.774016    0.225984         0.866604    0.133396

          ---------------------
          ELECTROSTATIC MOMENTS
          ---------------------

 POINT   1           X           Y           Z (BOHR)    CHARGE
                 0.038521    0.002577    0.000000        0.00 (A.U.)
         DX          DY          DZ         /D/  (DEBYE)
    -5.403986   -0.723236    0.000000    5.452168
 ...... END OF PROPERTY EVALUATION ......
 STEP CPU TIME =     0.01 TOTAL CPU TIME =          7.6 (      0.1 MIN)
 TOTAL WALL CLOCK TIME=          7.8 SECONDS, CPU UTILIZATION IS    97.94%
               580000  WORDS OF DYNAMIC MEMORY USED
 EXECUTION OF GAMESS TERMINATED NORMALLY Sat Mar 28 14:45:28 2020
 DDI: 263640 bytes (0.3 MB / 0 MWords) used by master data server.

 ----------------------------------------
 CPU timing information for all processes
 ========================================
 0: 7.181 + 0.421 = 7.602
 1: 0.02 + 0.03 = 0.06
 ----------------------------------------
 ddikick.x: exited gracefully.
unset echo
----- accounting info -----
Files used on the master node Vusals-MacBook-Pro.local were:
-rw-r--r--@ 1 wurthel  staff       968 Mar 28 14:45 .//struct.F05
-rw-r--r--  1 wurthel  staff  72366432 Mar 28 14:45 .//struct.F08
-rw-r--r--  1 wurthel  staff   2421280 Mar 28 14:45 .//struct.F10
-rw-r--r--  1 wurthel  staff     78384 Mar 28 14:45 .//struct.F12
-rw-r--r--  1 wurthel  staff    480925 Mar 28 14:45 .//struct.dat
-rw-r--r--@ 1 wurthel  staff       968 Mar 28 14:44 .//struct.inp
-rw-r--r--  1 wurthel  staff    388307 Mar 28 14:45 .//struct.log
ls: No match.
ls: No match.
ls: No match.
Sat Mar 28 14:45:31 MSK 2020
7.248u 0.500s 0:11.25 68.8%	0+0k 0+0io 519pf+0w
