----- GAMESS execution script 'rungms' -----
This job is running on host Vusals-MacBook-Pro.local
under operating system Darwin at Sat Mar 21 11:38:38 MSK 2020
Available scratch disk space (Kbyte units) at beginning of the job is
Filesystem   1024-blocks     Used Available Capacity iused               ifree %iused  Mounted on
/dev/disk1s5   118181844 47085040  68782956    41% 1009209 9223372036853766598    0%   /
GAMESS temporary binary files will be written to ./
GAMESS supplementary output files will be written to ./
Copying input file TDDFT.inp to your run's scratch directory...
cp TDDFT.inp .//TDDFT.F05
unset echo
.//ddikick.x .//gamess.30Sep2018R3.x TDDFT -ddi 1 1 Vusals-MacBook-Pro.local -scr ./

 Distributed Data Interface kickoff program.
 Initiating 1 compute processes on 1 nodes to run the following command:
 .//gamess.30Sep2018R3.x TDDFT 

          ******************************************************
          *         GAMESS VERSION = 30 SEP 2018 (R3)         *
          *             FROM IOWA STATE UNIVERSITY             *
          * M.W.SCHMIDT, K.K.BALDRIDGE, J.A.BOATZ, S.T.ELBERT, *
          *   M.S.GORDON, J.H.JENSEN, S.KOSEKI, N.MATSUNAGA,   *
          *          K.A.NGUYEN, S.J.SU, T.L.WINDUS,           *
          *       TOGETHER WITH M.DUPUIS, J.A.MONTGOMERY       *
          *         J.COMPUT.CHEM.  14, 1347-1363(1993)        *
          **************** 64 BIT APPLE VERSION ****************

  SINCE 1993, STUDENTS AND POSTDOCS WORKING AT IOWA STATE UNIVERSITY
  AND ALSO IN THEIR VARIOUS JOBS AFTER LEAVING ISU HAVE MADE IMPORTANT
  CONTRIBUTIONS TO THE CODE:
     IVANA ADAMOVIC, CHRISTINE AIKENS, YURI ALEXEEV, POOJA ARORA,
     ANDREY ASADCHEV, ROB BELL, PRADIPTA BANDYOPADHYAY, JONATHAN BENTZ,
     BRETT BODE, KURT BRORSEN, CALEB CARLIN, GALINA CHABAN, WEI CHEN,
     CHEOL HO CHOI, PAUL DAY, ALBERT DEFUSCO, NUWAN DESILVA, TIM DUDLEY,
     DMITRI FEDOROV, ALEX FINDLATER, GRAHAM FLETCHER, MARK FREITAG,
     KURT GLAESEMANN, ANASTASIA GUNINA,
     DAN KEMP, GRANT MERRILL, NORIYUKI MINEZAWA, JONATHAN MULLIN,
     TAKESHI NAGATA, SEAN NEDD, HEATHER NETZLOFF, BOSILJKA NJEGIC, RYAN OLSON,
     MIKE PAK, BUU PHAM,
     SPENCER PRUITT, LUKE ROSKOP, JIM SHOEMAKER, LYUDMILA SLIPCHENKO,
     TONY SMITH, SAROM SOK LEANG, JIE SONG, TETSUYA TAKETSUGU, SIMON WEBB,
     PENG XU, SOOHAENG YOO, FEDERICO ZAHARIEV

  ADDITIONAL CODE HAS BEEN PROVIDED BY COLLABORATORS IN OTHER GROUPS:
     IOWA STATE UNIVERSITY:
          JOE IVANIC, AARON WEST, LAIMUTIS BYTAUTAS, KLAUS RUEDENBERG
     UNIVERSITY OF TOKYO: KIMIHIKO HIRAO, TAKAHITO NAKAJIMA,
          TAKAO TSUNEDA, MUNEAKI KAMIYA, SUSUMU YANAGISAWA,
          KIYOSHI YAGI, MAHITO CHIBA, SEIKEN TOKURA, NAOAKI KAWAKAMI
     UNIVERSITY OF AARHUS: FRANK JENSEN
     UNIVERSITY OF IOWA: VISVALDAS KAIRYS, HUI LI
     NATIONAL INST. OF STANDARDS AND TECHNOLOGY: WALT STEVENS, DAVID GARMER
     UNIVERSITY OF PISA: BENEDETTA MENNUCCI, JACOPO TOMASI
     UNIVERSITY OF MEMPHIS: HENRY KURTZ, PRAKASHAN KORAMBATH
     UNIVERSITY OF ALBERTA: TOBY ZENG, MARIUSZ KLOBUKOWSKI
     UNIVERSITY OF NEW ENGLAND: MARK SPACKMAN
     MIE UNIVERSITY: HIROAKI UMEDA
     NAT. INST. OF ADVANCED INDUSTRIAL SCIENCE AND TECHNOLOGY: KAZUO KITAURA
     MICHIGAN STATE UNIVERSITY:
          KAROL KOWALSKI, MARTA WLOCH, JEFFREY GOUR, JESSE LUTZ,
          WEI LI, JUN SHEN, J. EMILIANO DEUSTUA, PIOTR PIECUCH
     UNIVERSITY OF MINNESOTA:
          YINAN SHU
     UNIVERSITY OF SILESIA: MONIKA MUSIAL, STANISLAW KUCHARSKI
     FACULTES UNIVERSITAIRES NOTRE-DAME DE LA PAIX:
          OLIVIER QUINET, BENOIT CHAMPAGNE
     UNIVERSITY OF CALIFORNIA - SANTA BARBARA: BERNARD KIRTMAN
     INSTITUTE FOR MOLECULAR SCIENCE:
          KAZUYA ISHIMURA, MICHIO KATOUDA, AND SHIGERU NAGASE
     UNIVERSITY OF NOTRE DAME: ANNA POMOGAEVA, DAN CHIPMAN
     KYUSHU UNIVERSITY:
          HARUYUKI NAKANO,
          FENG LONG GU, JACEK KORCHOWIEC, MARCIN MAKOWSKI, AND YURIKO AOKI,
          HIROTOSHI MORI AND EISAKU MIYOSHI
     PENNSYLVANIA STATE UNIVERSITY:
          TZVETELIN IORDANOV, CHET SWALINA, JONATHAN SKONE,
          SHARON HAMMES-SCHIFFER
     WASEDA UNIVERSITY:
          MASATO KOBAYASHI, TOMOKO AKAMA, TSUGUKI TOUMA,
          TAKESHI YOSHIKAWA, YASUHIRO IKABATA, JUNJI SEINO,
          YUYA NAKAJIMA, HIROMI NAKAI
     NANJING UNIVERSITY: SHUHUA LI
     UNIVERSITY OF NEBRASKA:
          PEIFENG SU, DEJUN SI, NANDUN THELLAMUREGE, YALI WANG, HUI LI
     UNIVERSITY OF ZURICH: ROBERTO PEVERATI, KIM BALDRIDGE
     N. COPERNICUS UNIVERSITY AND JACKSON STATE UNIVERSITY:
          MARIA BARYSZ
     UNIVERSITY OF COPENHAGEN: Jimmy Kromann, CASPER STEINMANN
     TOKYO INSTITUTE OF TECHNOLOGY: HIROYA NAKATA
     NAGOYA UNIVERSITY: YOSHIO NISHIMOTO, STEPHAN IRLE
     MOSCOW STATE UNIVERSITY: VLADIMIR MIRONOV

 EXECUTION OF GAMESS BEGUN Sat Mar 21 11:38:39 2020

            ECHO OF THE FIRST FEW INPUT CARDS -
 INPUT CARD>!   File created by the GAMESS Input Deck Generator Plugin for Avogadro         
 INPUT CARD> $BASIS GBASIS=STO NGAUSS=3 $END                                                
 INPUT CARD> $CONTRL SCFTYP=RHF RUNTYP=ENERGY DFTTYP=B3LYP TDDFT=EXCITE $END                
 INPUT CARD> $TDDFT NSTATE=6 $END                                                           
 INPUT CARD> $SYSTEM MWORDS=100 $END                                                        
 INPUT CARD>                                                                                
 INPUT CARD> $DATA                                                                          
 INPUT CARD>Title                                                                           
 INPUT CARD>C1                                                                              
 INPUT CARD>N     7.0     1.18299     1.38466    -0.00000                                   
 INPUT CARD>N     7.0     2.41810    -0.66612    -0.00000                                   
 INPUT CARD>C     6.0     0.00341    -0.70667    -0.00000                                   
 INPUT CARD>C     6.0     0.03427     0.69311    -0.00000                                   
 INPUT CARD>C     6.0    -1.21882    -1.40794    -0.00000                                   
 INPUT CARD>C     6.0    -1.18098     1.36720    -0.00000                                   
 INPUT CARD>C     6.0    -2.42141    -0.70645    -0.00000                                   
 INPUT CARD>C     6.0     1.24530    -1.32724    -0.00000                                   
 INPUT CARD>C     6.0    -2.40274     0.68443    -0.00000                                   
 INPUT CARD>C     6.0     2.31951     0.66993    -0.00000                                   
 INPUT CARD>H     1.0    -1.23330    -2.49523    -0.00000                                   
 INPUT CARD>H     1.0    -1.17733     2.45492    -0.00000                                   
 INPUT CARD>H     1.0     1.33549    -2.40998    -0.00000                                   
 INPUT CARD>H     1.0    -3.36818    -1.24071    -0.00000                                   
 INPUT CARD>H     1.0    -3.33479     1.24421    -0.00000                                   
 INPUT CARD>H     1.0     3.24838     1.23009     0.00000                                   
 INPUT CARD> $END                                                                           
  100000000 WORDS OF MEMORY AVAILABLE

     BASIS OPTIONS
     -------------
     GBASIS=STO          IGAUSS=       3      POLAR=NONE    
     NDFUNC=       0     NFFUNC=       0     DIFFSP=       F
     NPFUNC=       0      DIFFS=       F     BASNAM=        


     RUN TITLE
     ---------
 Title                                                                           

 THE POINT GROUP OF THE MOLECULE IS C1      
 THE ORDER OF THE PRINCIPAL AXIS IS     0

 ATOM      ATOMIC                      COORDINATES (BOHR)
           CHARGE         X                   Y                   Z
 N           7.0     2.2355269462        2.6166279862       -0.0000000000
 N           7.0     4.5695464109       -1.2587842749       -0.0000000000
 C           6.0     0.0064439656       -1.3354126637       -0.0000000000
 C           6.0     0.0647609096        1.3097879793       -0.0000000000
 C           6.0    -2.3032358284       -2.6606208072       -0.0000000000
 C           6.0    -2.2317285970        2.5836333704       -0.0000000000
 C           6.0    -4.5758014039       -1.3349969240       -0.0000000000
 C           6.0     2.3532757725       -2.5081199199       -0.0000000000
 C           6.0    -4.5405202197        1.2933851578       -0.0000000000
 C           6.0     4.3832383258        1.2659841310       -0.0000000000
 H           1.0    -2.3305990607       -4.7153009763       -0.0000000000
 H           1.0    -2.2248310971        4.6391261218       -0.0000000000
 H           1.0     2.5237101593       -4.5542018359       -0.0000000000
 H           1.0    -6.3649372773       -2.3446019302       -0.0000000000
 H           1.0    -6.3018393266        2.3512159712       -0.0000000000
 H           1.0     6.1385481040        2.3245330402        0.0000000000

          INTERNUCLEAR DISTANCES (ANGS.)
          ------------------------------

                1 N          2 N          3 C          4 C          5 C     

   1 N       0.0000000    2.3939915 *  2.4010560 *  1.3408203 *  3.6833824  
   2 N       2.3939915 *  0.0000000    2.4150305 *  2.7441122 *  3.7118033  
   3 C       2.4010560 *  2.4150305 *  0.0000000    1.4001201 *  1.4091223 *
   4 C       1.3408203 *  2.7441122 *  1.4001201 *  0.0000000    2.4463535 *
   5 C       3.6833824    3.7118033    1.4091223 *  2.4463535 *  0.0000000  
   6 C       2.3640345 *  4.1337352    2.3882455 *  1.3896870 *  2.7753980 *
   7 C       4.1670662    4.8396780    2.4248200 *  2.8265053 *  1.3922324 *
   8 C       2.7126157 *  1.3463059 *  1.3883076 *  2.3555058 *  2.4654411 *
   9 C       3.6534616    5.0064442    2.7793375 *  2.4370255 *  2.4040963 *
  10 C       1.3425784 *  1.3396826 *  2.6943175 *  2.2853576 *  4.1033307  
  11 H       4.5707772    4.0839154    2.1744881 *  3.4310706    1.0873864 *
  12 H       2.5916340 *  4.7610931    3.3748775    2.1382116 *  3.8630828  
  13 H       3.7977031    2.0525818 *  2.1623372 *  3.3648687    2.7438265 *
  14 H       5.2541142    5.8147390    3.4136224    3.9136078    2.1558558 *
  15 H       4.5199626    6.0617740    3.8664599    3.4138360    3.3928202  
  16 H       2.0711658 *  2.0700187 *  3.7790038    3.2586578    5.1879744  

                6 C          7 C          8 C          9 C         10 C     

   1 N       2.3640345 *  4.1670662    2.7126157 *  3.6534616    1.3425784 *
   2 N       4.1337352    4.8396780    1.3463059 *  5.0064442    1.3396826 *
   3 C       2.3882455 *  2.4248200 *  1.3883076 *  2.7793375 *  2.6943175 *
   4 C       1.3896870 *  2.8265053 *  2.3555058 *  2.4370255 *  2.2853576 *
   5 C       2.7753980 *  1.3922324 *  2.4654411 *  2.4040963 *  4.1033307  
   6 C       0.0000000    2.4163383 *  3.6258574    1.3995972 *  3.5692598  
   7 C       2.4163383 *  0.0000000    3.7188899    1.3910053 *  4.9366734  
   8 C       3.6258574    3.7188899    0.0000000    4.1659347    2.2677335 *
   9 C       1.3995972 *  1.3910053 *  4.1659347    0.0000000    4.7222723  
  10 C       3.5692598    4.9366734    2.2677335 *  4.7222723    0.0000000  
  11 H       3.8627843    2.1474029 *  2.7400107 *  3.3878943    4.7582241  
  12 H       1.0877261 *  3.3973512    4.4915332    2.1531987 *  3.9260768  
  13 H       4.5386903    4.1250833    1.0864898 *  4.8528071    3.2332864  
  14 H       3.4036801    1.0871096 *  4.6142914    2.1536570 *  6.0000302  
  15 H       2.1573187 *  2.1539121 *  5.2525784    1.0872308 *  5.6833886  
  16 H       4.4314816    5.9913860    3.2484252    5.6774028    1.0847021 *

               11 H         12 H         13 H         14 H         15 H     

   1 N       4.5707772    2.5916340 *  3.7977031    5.2541142    4.5199626  
   2 N       4.0839154    4.7610931    2.0525818 *  5.8147390    6.0617740  
   3 C       2.1744881 *  3.3748775    2.1623372 *  3.4136224    3.8664599  
   4 C       3.4310706    2.1382116 *  3.3648687    3.9136078    3.4138360  
   5 C       1.0873864 *  3.8630828    2.7438265 *  2.1558558 *  3.3928202  
   6 C       3.8627843    1.0877261 *  4.5386903    3.4036801    2.1573187 *
   7 C       2.1474029 *  3.3973512    4.1250833    1.0871096 *  2.1539121 *
   8 C       2.7400107 *  4.4915332    1.0864898 *  4.6142914    5.2525784  
   9 C       3.3878943    2.1531987 *  4.8528071    2.1536570 *  1.0872308 *
  10 C       4.7582241    3.9260768    3.2332864    6.0000302    5.6833886  
  11 H       0.0000000    4.9504664    2.5702042 *  2.4761933 *  4.2894839  
  12 H       4.9504664    0.0000000    5.4755380    4.2962198    2.4739548 *
  13 H       2.5702042 *  5.4755380    0.0000000    4.8468241    5.9299764  
  14 H       2.4761933 *  4.2962198    4.8468241    0.0000000    2.4851443 *
  15 H       4.2894839    2.4739548 *  5.9299764    2.4851443 *  0.0000000  
  16 H       5.8278182    4.5920712    4.1120868    7.0628407    6.5831851  

               16 H     

   1 N       2.0711658 *
   2 N       2.0700187 *
   3 C       3.7790038  
   4 C       3.2586578  
   5 C       5.1879744  
   6 C       4.4314816  
   7 C       5.9913860  
   8 C       3.2484252  
   9 C       5.6774028  
  10 C       1.0847021 *
  11 H       5.8278182  
  12 H       4.5920712  
  13 H       4.1120868  
  14 H       7.0628407  
  15 H       6.5831851  
  16 H       0.0000000  

  * ... LESS THAN  3.000


     ATOMIC BASIS SET
     ----------------
 THE CONTRACTED PRIMITIVE FUNCTIONS HAVE BEEN UNNORMALIZED
 THE CONTRACTED BASIS FUNCTIONS ARE NOW NORMALIZED TO UNITY

  SHELL TYPE  PRIMITIVE        EXPONENT          CONTRACTION COEFFICIENT(S)

 N         

      1   S       1            99.1061690    0.154328967295
      1   S       2            18.0523124    0.535328142282
      1   S       3             4.8856602    0.444634542185

      2   L       4             3.7804559   -0.099967229187    0.155916274999
      2   L       5             0.8784966    0.399512826089    0.607683718598
      2   L       6             0.2857144    0.700115468880    0.391957393099

 N         

      3   S       7            99.1061690    0.154328967295
      3   S       8            18.0523124    0.535328142282
      3   S       9             4.8856602    0.444634542185

      4   L      10             3.7804559   -0.099967229187    0.155916274999
      4   L      11             0.8784966    0.399512826089    0.607683718598
      4   L      12             0.2857144    0.700115468880    0.391957393099

 C         

      5   S      13            71.6168373    0.154328967295
      5   S      14            13.0450963    0.535328142282
      5   S      15             3.5305122    0.444634542185

      6   L      16             2.9412494   -0.099967229187    0.155916274999
      6   L      17             0.6834831    0.399512826089    0.607683718598
      6   L      18             0.2222899    0.700115468880    0.391957393099

 C         

      7   S      19            71.6168373    0.154328967295
      7   S      20            13.0450963    0.535328142282
      7   S      21             3.5305122    0.444634542185

      8   L      22             2.9412494   -0.099967229187    0.155916274999
      8   L      23             0.6834831    0.399512826089    0.607683718598
      8   L      24             0.2222899    0.700115468880    0.391957393099

 C         

      9   S      25            71.6168373    0.154328967295
      9   S      26            13.0450963    0.535328142282
      9   S      27             3.5305122    0.444634542185

     10   L      28             2.9412494   -0.099967229187    0.155916274999
     10   L      29             0.6834831    0.399512826089    0.607683718598
     10   L      30             0.2222899    0.700115468880    0.391957393099

 C         

     11   S      31            71.6168373    0.154328967295
     11   S      32            13.0450963    0.535328142282
     11   S      33             3.5305122    0.444634542185

     12   L      34             2.9412494   -0.099967229187    0.155916274999
     12   L      35             0.6834831    0.399512826089    0.607683718598
     12   L      36             0.2222899    0.700115468880    0.391957393099

 C         

     13   S      37            71.6168373    0.154328967295
     13   S      38            13.0450963    0.535328142282
     13   S      39             3.5305122    0.444634542185

     14   L      40             2.9412494   -0.099967229187    0.155916274999
     14   L      41             0.6834831    0.399512826089    0.607683718598
     14   L      42             0.2222899    0.700115468880    0.391957393099

 C         

     15   S      43            71.6168373    0.154328967295
     15   S      44            13.0450963    0.535328142282
     15   S      45             3.5305122    0.444634542185

     16   L      46             2.9412494   -0.099967229187    0.155916274999
     16   L      47             0.6834831    0.399512826089    0.607683718598
     16   L      48             0.2222899    0.700115468880    0.391957393099

 C         

     17   S      49            71.6168373    0.154328967295
     17   S      50            13.0450963    0.535328142282
     17   S      51             3.5305122    0.444634542185

     18   L      52             2.9412494   -0.099967229187    0.155916274999
     18   L      53             0.6834831    0.399512826089    0.607683718598
     18   L      54             0.2222899    0.700115468880    0.391957393099

 C         

     19   S      55            71.6168373    0.154328967295
     19   S      56            13.0450963    0.535328142282
     19   S      57             3.5305122    0.444634542185

     20   L      58             2.9412494   -0.099967229187    0.155916274999
     20   L      59             0.6834831    0.399512826089    0.607683718598
     20   L      60             0.2222899    0.700115468880    0.391957393099

 H         

     21   S      61             3.4252509    0.154328967295
     21   S      62             0.6239137    0.535328142282
     21   S      63             0.1688554    0.444634542185

 H         

     22   S      64             3.4252509    0.154328967295
     22   S      65             0.6239137    0.535328142282
     22   S      66             0.1688554    0.444634542185

 H         

     23   S      67             3.4252509    0.154328967295
     23   S      68             0.6239137    0.535328142282
     23   S      69             0.1688554    0.444634542185

 H         

     24   S      70             3.4252509    0.154328967295
     24   S      71             0.6239137    0.535328142282
     24   S      72             0.1688554    0.444634542185

 H         

     25   S      73             3.4252509    0.154328967295
     25   S      74             0.6239137    0.535328142282
     25   S      75             0.1688554    0.444634542185

 H         

     26   S      76             3.4252509    0.154328967295
     26   S      77             0.6239137    0.535328142282
     26   S      78             0.1688554    0.444634542185

 TOTAL NUMBER OF BASIS SET SHELLS             =   26
 NUMBER OF CARTESIAN GAUSSIAN BASIS FUNCTIONS =   56
 NUMBER OF ELECTRONS                          =   68
 CHARGE OF MOLECULE                           =    0
 SPIN MULTIPLICITY                            =    1
 NUMBER OF OCCUPIED ORBITALS (ALPHA)          =   34
 NUMBER OF OCCUPIED ORBITALS (BETA )          =   34
 TOTAL NUMBER OF ATOMS                        =   16
 THE NUCLEAR REPULSION ENERGY IS      467.4650318444

     LEBEDEV GRID-BASED DFT OPTIONS
     ------------------------------
     DFTTYP=B3LYP   
     NRAD  =      96     NLEB  =     302
     NRAD0 =      24     NLEB0 =     110
     SWOFF =    5.00E-03 (PURE SCF -> DFT)
     SWITCH=    3.00E-04 (COARSE -> TIGHT GRID)
     THRESH=    0.00E+00 GTHRE=    1.00E+00

 GRIMME'S EMPIRICAL DISPERSION CORRECTION= F

     $CONTRL OPTIONS
     ---------------
 SCFTYP=RHF          RUNTYP=ENERGY       EXETYP=RUN     
 MPLEVL=       0     CITYP =NONE         CCTYP =NONE         VBTYP =NONE    
 DFTTYP=B3LYP        TDDFT =EXCITE  
 MULT  =       1     ICHARG=       0     NZVAR =       0     COORD =UNIQUE  
 PP    =NONE         RELWFN=NONE         LOCAL =NONE         NUMGRD=       F
 ISPHER=      -1     NOSYM =       0     MAXIT =      30     UNITS =ANGS    
 PLTORB=       F     MOLPLT=       F     AIMPAC=       F     FRIEND=        
 NPRINT=       7     IREST =       0     GEOM  =INPUT   
 NORMF =       0     NORMP =       0     ITOL  =      20     ICUT  =       9
 INTTYP=BEST         GRDTYP=BEST         QMTTOL= 1.0E-06

     $SYSTEM OPTIONS
     ---------------
  REPLICATED MEMORY=   100000000 WORDS (ON EVERY NODE).
 DISTRIBUTED MEMDDI=           0 MILLION WORDS IN AGGREGATE,
 MEMDDI DISTRIBUTED OVER   1 PROCESSORS IS           0 WORDS/PROCESSOR.
 TOTAL MEMORY REQUESTED ON EACH PROCESSOR=   100000000 WORDS.
 TIMLIM=      525600.00 MINUTES, OR     365.0 DAYS.
 PARALL= F  BALTYP=  DLB     KDIAG=    0  COREFL= F
 MXSEQ2=     300 MXSEQ3=     150  mem10=         0

          ----------------
          PROPERTIES INPUT
          ----------------

     MOMENTS            FIELD           POTENTIAL          DENSITY
 IEMOM =       1   IEFLD =       0   IEPOT =       0   IEDEN =       0
 WHERE =COMASS     WHERE =NUCLEI     WHERE =NUCLEI     WHERE =NUCLEI  
 OUTPUT=BOTH       OUTPUT=BOTH       OUTPUT=BOTH       OUTPUT=BOTH    
 IEMINT=       0   IEFINT=       0                     IEDINT=       0
                                                       MORB  =       0
          EXTRAPOLATION IN EFFECT
          DIIS IN EFFECT
 ORBITAL PRINTING OPTION: NPREO=     1    56     2     1

     -------------------------------
     INTEGRAL TRANSFORMATION OPTIONS
     -------------------------------
     NWORD  =            0
     CUTOFF = 1.0E-09     MPTRAN =       0
     DIRTRF =       F     AOINTS =DUP     

          ----------------------
          INTEGRAL INPUT OPTIONS
          ----------------------
 NOPK  =       1 NORDER=       0 SCHWRZ=       T

          ----------------------
          TDDFT INPUT PARAMETERS
          ----------------------
 NSTATE=       6  IROOT=       1   MULT=       1
 MAXVEC=      50 NTRIAL=       5 CNVTOL=  1.00E-07
 TDPRP =       F  TAMMD=       F    TPA=       F
 ALPHA =       F   BETA=       F  PFREQ=    0.00    0.00
   NRAD=      48   NLEB=     110

     ------------------------------------------
     THE POINT GROUP IS C1 , NAXIS= 0, ORDER= 1
     ------------------------------------------

     DIMENSIONS OF THE SYMMETRY SUBSPACES ARE
 A   =   56

 ..... DONE SETTING UP THE RUN .....
 STEP CPU TIME =     0.02 TOTAL CPU TIME =          0.0 (      0.0 MIN)
 TOTAL WALL CLOCK TIME=          0.1 SECONDS, CPU UTILIZATION IS    33.33%

          ********************
          1 ELECTRON INTEGRALS
          ********************
 ...... END OF ONE-ELECTRON INTEGRALS ......
 STEP CPU TIME =     0.00 TOTAL CPU TIME =          0.0 (      0.0 MIN)
 TOTAL WALL CLOCK TIME=          0.1 SECONDS, CPU UTILIZATION IS    28.57%

          -------------
          GUESS OPTIONS
          -------------
          GUESS =HUCKEL            NORB  =       0          NORDER=       0
          MIX   =       F          PRTMO =       F          PUNMO =       F
          TOLZ  = 1.0E-08          TOLE  = 1.0E-05
          SYMDEN=       F          PURIFY=       F

 INITIAL GUESS ORBITALS GENERATED BY HUCKEL   ROUTINE.
 HUCKEL GUESS REQUIRES     46080 WORDS.

 SYMMETRIES FOR INITIAL GUESS ORBITALS FOLLOW.   BOTH SET(S).
    34 ORBITALS ARE OCCUPIED (   10 CORE ORBITALS).
    11=A       12=A       13=A       14=A       15=A       16=A       17=A   
    18=A       19=A       20=A       21=A       22=A       23=A       24=A   
    25=A       26=A       27=A       28=A       29=A       30=A       31=A   
    32=A       33=A       34=A       35=A       36=A       37=A       38=A   
    39=A       40=A       41=A       42=A       43=A       44=A   
 ...... END OF INITIAL ORBITAL SELECTION ......
 STEP CPU TIME =     0.01 TOTAL CPU TIME =          0.0 (      0.0 MIN)
 TOTAL WALL CLOCK TIME=          0.1 SECONDS, CPU UTILIZATION IS    37.50%

                    ----------------------
                    AO INTEGRAL TECHNOLOGY
                    ----------------------
     S,P,L SHELL ROTATED AXIS INTEGRALS, REPROGRAMMED BY
        KAZUYA ISHIMURA (IMS) AND JOSE SIERRA (SYNSTAR).
     S,P,D,L SHELL ROTATED AXIS INTEGRALS PROGRAMMED BY
        KAZUYA ISHIMURA (INSTITUTE FOR MOLECULAR SCIENCE).
     S,P,D,F,G SHELL TO TOTAL QUARTET ANGULAR MOMENTUM SUM 5,
        ERIC PROGRAM BY GRAHAM FLETCHER (ELORET AND NASA ADVANCED
        SUPERCOMPUTING DIVISION, AMES RESEARCH CENTER).
     S,P,D,F,G,L SHELL GENERAL RYS QUADRATURE PROGRAMMED BY
        MICHEL DUPUIS (PACIFIC NORTHWEST NATIONAL LABORATORY).

          --------------------
          2 ELECTRON INTEGRALS
          --------------------

 THE -PK- OPTION IS OFF, THE INTEGRALS ARE NOT IN SUPERMATRIX FORM.
 STORING   15000 INTEGRALS/RECORD ON DISK, USING 12 BYTES/INTEGRAL.
 TWO ELECTRON INTEGRAL EVALUATION REQUIRES   89707 WORDS OF MEMORY.
 SCHWARZ INEQUALITY OVERHEAD:      1567 INTEGRALS, T=        0.01
 II,JST,KST,LST =  1  1  1  1 NREC =         1 INTLOC =    1
 II,JST,KST,LST =  2  1  1  1 NREC =         1 INTLOC =    2
 II,JST,KST,LST =  3  1  1  1 NREC =         1 INTLOC =   34
 II,JST,KST,LST =  4  1  1  1 NREC =         1 INTLOC =   93
 II,JST,KST,LST =  5  1  1  1 NREC =         1 INTLOC =  791
 II,JST,KST,LST =  6  1  1  1 NREC =         1 INTLOC = 1116
 II,JST,KST,LST =  7  1  1  1 NREC =         1 INTLOC = 3846
 II,JST,KST,LST =  8  1  1  1 NREC =         1 INTLOC = 4945
 II,JST,KST,LST =  9  1  1  1 NREC =         1 INTLOC =11959
 II,JST,KST,LST = 10  1  1  1 NREC =         1 INTLOC =13860
 II,JST,KST,LST = 11  1  1  1 NREC =         2 INTLOC =12474
 II,JST,KST,LST = 12  1  1  1 NREC =         3 INTLOC =  954
 II,JST,KST,LST = 13  1  1  1 NREC =         4 INTLOC = 9910
 II,JST,KST,LST = 14  1  1  1 NREC =         4 INTLOC =14617
 II,JST,KST,LST = 15  1  1  1 NREC =         7 INTLOC = 5539
 II,JST,KST,LST = 16  1  1  1 NREC =         8 INTLOC =  398
 II,JST,KST,LST = 17  1  1  1 NREC =        11 INTLOC =13559
 II,JST,KST,LST = 18  1  1  1 NREC =        12 INTLOC =10446
 II,JST,KST,LST = 19  1  1  1 NREC =        17 INTLOC =14328
 II,JST,KST,LST = 20  1  1  1 NREC =        18 INTLOC =14824
 II,JST,KST,LST = 21  1  1  1 NREC =        26 INTLOC =  880
 II,JST,KST,LST = 22  1  1  1 NREC =        28 INTLOC = 5920
 II,JST,KST,LST = 23  1  1  1 NREC =        30 INTLOC =13552
 II,JST,KST,LST = 24  1  1  1 NREC =        33 INTLOC = 8661
 II,JST,KST,LST = 25  1  1  1 NREC =        36 INTLOC = 1659
 II,JST,KST,LST = 26  1  1  1 NREC =        38 INTLOC =12099
 SCHWARZ INEQUALITY TEST SKIPPED       19903 INTEGRAL BLOCKS.
 TOTAL NUMBER OF NONZERO TWO-ELECTRON INTEGRALS =              609776
         41 INTEGRAL RECORDS WERE STORED ON DISK FILE  8.
  ...... END OF TWO-ELECTRON INTEGRALS .....
 STEP CPU TIME =     0.13 TOTAL CPU TIME =          0.2 (      0.0 MIN)
 TOTAL WALL CLOCK TIME=          0.2 SECONDS, CPU UTILIZATION IS    72.73%

          --------------------------
             R-B3LYP SCF CALCULATION
          --------------------------

     NUCLEAR ENERGY =       467.4650318444
     MAXIT =   30     NPUNCH=    2
     EXTRAP=T  DAMP=F  SHIFT=F  RSTRCT=F  DIIS=T  DEM=F  SOSCF=F
         DENSITY MATRIX CONVERGENCE THRESHOLD=  1.00E-06
     COARSE -> FINE DFT GRID SWITCH THRESHOLD=  3.00E-04 (SWITCH IN $DFT)
                   HF -> DFT SWITCH THRESHOLD=  5.00E-03 (SWOFF IN $DFT)
     MEMORY REQUIRED FOR RHF ITERS=    583192 WORDS.

 DFT CODE IS SWITCHING FROM THE FINE GRID NRAD= 96,  NLEB=  302
                      TO THE COARSE GRID NRAD0= 24, NLEB0=  110

     EXCHANGE FUNCTIONAL   =B88&HFX   
     CORRELATION FUNCTIONAL=LYP88&VWN5
     DFT THRESHOLD         =.862E-08
     GRID CHANGE THRESHOLD =.300E-03
 FOR AN EULER-MACLAURIN QUADRATURE USING  96 RADIAL POINTS:
 SMALLEST GAUSSIAN PRIMITIVE EXPONENT=        0.1688554040 OF TYPE -S-
 ON ATOM NUMBER  11 HAS RADIAL NORMALIZATION=  1.000000
  LARGEST GAUSSIAN PRIMITIVE EXPONENT=       99.1061689555 OF TYPE -S-
 ON ATOM NUMBER   1 HAS RADIAL NORMALIZATION=  1.000000
 DFT IS SWITCHED OFF, PERFORMING PURE SCF UNTIL SWOFF THRESHOLD IS REACHED.

 ITER EX DEM     TOTAL ENERGY        E CHANGE  DENSITY CHANGE    DIIS ERROR
   1  0  0     -409.6869923897  -409.6869923897   0.453646424   0.595149892
          * * *   INITIATING DIIS PROCEDURE   * * *
   2  1  0     -410.1434593162    -0.4564669265   0.183680718   0.059903121
   3  2  0     -410.1657258822    -0.0222665660   0.052235839   0.033182729
   4  3  0     -410.1699404474    -0.0042145652   0.030107174   0.010234351
   5  4  0     -410.1705786048    -0.0006381574   0.005528410   0.002549683
   6  5  0     -410.1706118590    -0.0000332542   0.001496846   0.001107103
 CONVERGED TO SWOFF, SO DFT CALCULATION IS NOW SWITCHED ON.
          * * *   INITIATING DIIS PROCEDURE   * * *
   7  6  0     -412.4504908003    -2.2798789413   0.053097217   0.087860259
   8  7  0     -412.4582641259    -0.0077733257   0.085830480   0.020211308
   9  8  0     -412.4564995189     0.0017646070   0.056892896   0.035439484
  10  9  0     -412.4599051114    -0.0034055925   0.006796523   0.005822516
  11 10  0     -412.4599821135    -0.0000770021   0.001752213   0.001107995
  12 11  0     -412.4599865366    -0.0000044231   0.000483544   0.000218573
  13 12  0     -412.4599867313    -0.0000001947   0.000236097   0.000127607
 DFT CODE IS SWITCHING BACK TO THE FINE GRID
          * * *   INITIATING DIIS PROCEDURE   * * *
  14 13  0     -412.4558563846     0.0041303468   0.000894281   0.000302986
  15 14  0     -412.4558574017    -0.0000010172   0.000580843   0.000109352
  16 15  0     -412.4558573526     0.0000000491   0.000415611   0.000199582
  17 16  0     -412.4558574789    -0.0000001262   0.000062646   0.000045001
  18 17  0     -412.4558574832    -0.0000000044   0.000030914   0.000012957
  19 18  0     -412.4558574839    -0.0000000007   0.000003921   0.000002309
  20 19  0     -412.4558574840    -0.0000000000   0.000001519   0.000000893
  21 20  0     -412.4558574840    -0.0000000000   0.000000332   0.000000134

          -----------------
          DENSITY CONVERGED
          -----------------
     TIME TO FORM FOCK OPERATORS=      16.8 SECONDS (       0.8 SEC/ITER)
     TIME TO SOLVE SCF EQUATIONS=       0.0 SECONDS (       0.0 SEC/ITER)

 FINAL R-B3LYP ENERGY IS     -412.4558574840 AFTER  21 ITERATIONS
 DFT EXCHANGE + CORRELATION ENERGY =       -47.8003197757
 TOTAL ELECTRON NUMBER             =        68.0000896518

          ------------
          EIGENVECTORS
          ------------

                      1          2          3          4          5
                  -14.1451   -14.1407   -10.0771   -10.0694   -10.0630
                     A          A          A          A          A   
    1  N  1  S    0.014180   0.992369   0.000668   0.000714   0.000012
    2  N  1  S    0.000986   0.036321  -0.007885  -0.008452   0.000067
    3  N  1  X   -0.000099  -0.000155  -0.004319   0.004417   0.000056
    4  N  1  Y   -0.000717  -0.007074   0.002530   0.002466   0.000054
    5  N  1  Z   -0.000000   0.000000   0.000000  -0.000000  -0.000000
    6  N  2  S    0.992376  -0.014275   0.000670   0.000001   0.000701
    7  N  2  S    0.036258  -0.000045  -0.007989   0.000138  -0.008211
    8  N  2  X   -0.006288  -0.000497   0.000200  -0.000015   0.004377
    9  N  2  Y    0.003482   0.000157  -0.005011  -0.000048   0.002543
   10  N  2  Z   -0.000000   0.000000   0.000000  -0.000000  -0.000000
   11  C  3  S   -0.000029  -0.000027  -0.000998  -0.012922  -0.016133
   12  C  3  S    0.000513   0.000532   0.000339  -0.010078  -0.010365
   13  C  3  X    0.000542   0.000516  -0.000170  -0.000165  -0.005654
   14  C  3  Y    0.000386   0.000304  -0.000080  -0.006318   0.002625
   15  C  3  Z   -0.000000   0.000000   0.000000  -0.000000  -0.000000
   16  C  4  S    0.000012   0.000640  -0.015708   0.990199   0.007793
   17  C  4  S   -0.000320  -0.008784  -0.001047   0.045149   0.000739
   18  C  4  X   -0.000098  -0.006204  -0.000708  -0.000631  -0.000354
   19  C  4  Y   -0.000031  -0.003233   0.000344  -0.000251  -0.000149
   20  C  4  Z   -0.000000   0.000000   0.000000  -0.000000  -0.000000
   21  C  5  S    0.000002   0.000004  -0.000117  -0.000165  -0.000076
   22  C  5  S    0.000055   0.000026  -0.000127   0.000462   0.000476
   23  C  5  X   -0.000025   0.000049  -0.000078   0.000112   0.000182
   24  C  5  Y    0.000076  -0.000058  -0.000041   0.000186   0.000046
   25  C  5  Z   -0.000000   0.000000   0.000000  -0.000000  -0.000000
   26  C  6  S   -0.000000  -0.000011  -0.000054  -0.006530  -0.000283
   27  C  6  S    0.000024   0.000388  -0.000064  -0.010010  -0.000270
   28  C  6  X    0.000016   0.000256  -0.000058  -0.005620  -0.000126
   29  C  6  Y    0.000002   0.000333   0.000021   0.003059   0.000142
   30  C  6  Z   -0.000000   0.000000   0.000000  -0.000000  -0.000000
   31  C  7  S    0.000001   0.000003   0.000008  -0.000607  -0.000233
   32  C  7  S   -0.000025   0.000011   0.000002  -0.000174  -0.000102
   33  C  7  X   -0.000019  -0.000034   0.000005  -0.000171  -0.000081
   34  C  7  Y    0.000003  -0.000023   0.000003  -0.000097  -0.000013
   35  C  7  Z   -0.000000   0.000000   0.000000  -0.000000  -0.000000
   36  C  8  S    0.000631  -0.000005  -0.009500  -0.008083   0.990462
   37  C  8  S   -0.008600  -0.000066  -0.000853  -0.000016   0.043539
   38  C  8  X   -0.005758   0.000081  -0.000034  -0.000254  -0.000378
   39  C  8  Y   -0.003781   0.000022  -0.000869  -0.000178   0.001117
   40  C  8  Z   -0.000000   0.000000   0.000000  -0.000000  -0.000000
   41  C  9  S   -0.000000   0.000006  -0.000004  -0.000191  -0.000072
   42  C  9  S    0.000003  -0.000017  -0.000008   0.000406   0.000016
   43  C  9  X    0.000001  -0.000047  -0.000001   0.000181  -0.000012
   44  C  9  Y   -0.000000   0.000042  -0.000007  -0.000023   0.000006
   45  C  9  Z   -0.000000   0.000000   0.000000  -0.000000  -0.000000
   46  C 10  S    0.000637   0.000620   0.990663   0.015891   0.009916
   47  C 10  S   -0.008807  -0.008468   0.042024   0.000252  -0.000073
   48  C 10  X    0.000030   0.006107  -0.000501   0.000616   0.000717
   49  C 10  Y    0.006926  -0.003349  -0.000397   0.000363   0.000428
   50  C 10  Z   -0.000000   0.000000   0.000000  -0.000000  -0.000000
   51  H 11  S   -0.000031  -0.000021   0.000006  -0.000074  -0.000104
   52  H 12  S   -0.000003  -0.000327  -0.000007   0.000208  -0.000007
   53  H 13  S    0.000189   0.000014  -0.000168  -0.000090  -0.009172
   54  H 14  S   -0.000000  -0.000017   0.000001  -0.000042  -0.000006
   55  H 15  S   -0.000000  -0.000013   0.000002  -0.000076  -0.000009
   56  H 16  S    0.000169   0.000149  -0.009224  -0.000360  -0.000334

                      6          7          8          9         10
                  -10.0432   -10.0296   -10.0289   -10.0283   -10.0229
                     A          A          A          A          A   
    1  N  1  S   -0.000026   0.000007   0.000001   0.000017  -0.000005
    2  N  1  S    0.000393  -0.000031  -0.000007  -0.000136   0.000356
    3  N  1  X    0.000013   0.000018  -0.000011   0.000101  -0.000151
    4  N  1  Y   -0.000317   0.000021   0.000048   0.000007  -0.000066
    5  N  1  Z    0.000000   0.000000  -0.000000   0.000000  -0.000000
    6  N  2  S   -0.000026   0.000007   0.000005   0.000002   0.000000
    7  N  2  S    0.000349  -0.000032  -0.000030  -0.000018   0.000023
    8  N  2  X   -0.000253   0.000035   0.000028   0.000013   0.000002
    9  N  2  Y    0.000197   0.000001   0.000004   0.000007   0.000004
   10  N  2  Z    0.000000   0.000000  -0.000000   0.000000  -0.000000
   11  C  3  S    0.989745   0.023997   0.011401   0.007268   0.001776
   12  C  3  S    0.046117  -0.007302  -0.003324  -0.001351   0.000316
   13  C  3  X    0.000496   0.004898   0.002258   0.001146   0.000160
   14  C  3  Y    0.000339   0.002680   0.001421   0.000417   0.000054
   15  C  3  Z    0.000000   0.000000  -0.000000   0.000000  -0.000000
   16  C  4  S    0.014440   0.000133   0.000786   0.000252   0.007960
   17  C  4  S   -0.009156   0.000306  -0.000485   0.000795  -0.009431
   18  C  4  X    0.000076  -0.000243   0.000330  -0.000327   0.005546
   19  C  4  Y    0.006384   0.000035   0.000025   0.000235  -0.003036
   20  C  4  Z    0.000000   0.000000  -0.000000   0.000000  -0.000000
   21  C  5  S   -0.026052   0.866587   0.442032   0.184783   0.006480
   22  C  5  S   -0.010398   0.043207   0.013078   0.002993   0.000094
   23  C  5  X   -0.005360  -0.002778   0.003554   0.002989   0.000046
   24  C  5  Y   -0.003134   0.002809  -0.001643  -0.001589  -0.000286
   25  C  5  Z    0.000000   0.000000  -0.000000   0.000000  -0.000000
   26  C  6  S   -0.001490  -0.010124   0.027588  -0.053004   0.988669
   27  C  6  S    0.000185  -0.002009   0.006992  -0.009737   0.043975
   28  C  6  X    0.000011   0.000735  -0.003257   0.004237   0.000528
   29  C  6  Y    0.000011   0.000709  -0.001871   0.002645  -0.001254
   30  C  6  Z    0.000000   0.000000  -0.000000   0.000000  -0.000000
   31  C  7  S   -0.000701  -0.459852   0.665485   0.571659   0.007406
   32  C  7  S    0.000595  -0.030449   0.031522   0.016370   0.000058
   33  C  7  X    0.000251  -0.005540  -0.001394  -0.000397   0.000001
   34  C  7  Y   -0.000060   0.001434   0.005728  -0.003980  -0.000266
   35  C  7  Z    0.000000   0.000000  -0.000000   0.000000  -0.000000
   36  C  8  S    0.017401   0.000372   0.000358   0.000330   0.000294
   37  C  8  S   -0.009150   0.000091   0.000024  -0.000098  -0.000152
   38  C  8  X    0.005731  -0.000004   0.000046   0.000109   0.000072
   39  C  8  Y   -0.002900  -0.000125  -0.000034  -0.000032  -0.000104
   40  C  8  Z    0.000000   0.000000  -0.000000   0.000000  -0.000000
   41  C  9  S   -0.002238   0.129968  -0.584571   0.786666   0.061207
   42  C  9  S   -0.000226   0.010765  -0.032943   0.030452  -0.006735
   43  C  9  X   -0.000204   0.000264  -0.000934   0.001277  -0.005500
   44  C  9  Y    0.000151  -0.003144   0.004715   0.003080  -0.002905
   45  C  9  Z    0.000000   0.000000  -0.000000   0.000000  -0.000000
   46  C 10  S    0.001449   0.000152   0.000080   0.000036   0.000190
   47  C 10  S   -0.000224  -0.000026  -0.000010  -0.000011  -0.000096
   48  C 10  X    0.000290   0.000048   0.000022   0.000012   0.000097
   49  C 10  Y    0.000178   0.000028   0.000017   0.000001   0.000036
   50  C 10  Z    0.000000   0.000000  -0.000000   0.000000  -0.000000
   51  H 11  S    0.000396  -0.008064  -0.003884  -0.001680  -0.000146
   52  H 12  S   -0.000106   0.000097  -0.000460   0.000549  -0.009105
   53  H 13  S    0.000031  -0.000087  -0.000063  -0.000028  -0.000014
   54  H 14  S   -0.000095   0.004410  -0.006152  -0.005079  -0.000161
   55  H 15  S   -0.000051  -0.001377   0.005458  -0.007169  -0.000400
   56  H 16  S   -0.000088  -0.000016  -0.000009  -0.000003  -0.000017

                     11         12         13         14         15
                   -0.9536    -0.8569    -0.8234    -0.7460    -0.7160
                     A          A          A          A          A   
    1  N  1  S   -0.124379   0.117780  -0.092381   0.008993   0.044293
    2  N  1  S    0.386208  -0.379125   0.300670  -0.031699  -0.152785
    3  N  1  X    0.004832   0.058780   0.035228  -0.065396  -0.117516
    4  N  1  Y   -0.132169   0.098177  -0.078940  -0.002828   0.042368
    5  N  1  Z   -0.000000  -0.000000   0.000000   0.000000  -0.000000
    6  N  2  S   -0.121643  -0.146532   0.019353   0.049571  -0.027918
    7  N  2  S    0.378374   0.472540  -0.063254  -0.168602   0.095062
    8  N  2  X   -0.109538  -0.123462   0.037220  -0.016529  -0.043005
    9  N  2  Y    0.073953   0.044030   0.037303  -0.092621  -0.043789
   10  N  2  Z   -0.000000  -0.000000   0.000000   0.000000  -0.000000
   11  C  3  S   -0.056958   0.026286   0.110895  -0.135473   0.016884
   12  C  3  S    0.133663  -0.064407  -0.276102   0.353481  -0.044751
   13  C  3  X    0.035569   0.044675   0.032666   0.059409   0.074642
   14  C  3  Y    0.025319  -0.057749   0.014701  -0.011190   0.093047
   15  C  3  Z   -0.000000  -0.000000   0.000000   0.000000  -0.000000
   16  C  4  S   -0.087131   0.114768   0.029659  -0.049397  -0.088799
   17  C  4  S    0.194856  -0.278582  -0.080795   0.132101   0.241488
   18  C  4  X    0.063970  -0.039600   0.107345   0.047162  -0.107413
   19  C  4  Y    0.003470  -0.039385   0.076834  -0.094659   0.043820
   20  C  4  Z   -0.000000  -0.000000   0.000000   0.000000  -0.000000
   21  C  5  S   -0.014477   0.026063   0.109639  -0.022664   0.130444
   22  C  5  S    0.036151  -0.063877  -0.276174   0.062521  -0.351014
   23  C  5  X    0.012335   0.002408  -0.006300   0.113166   0.045408
   24  C  5  Y    0.010651  -0.020876  -0.060392  -0.007808  -0.016772
   25  C  5  Z   -0.000000  -0.000000   0.000000   0.000000  -0.000000
   26  C  6  S   -0.022711   0.061837   0.068331   0.066843  -0.138050
   27  C  6  S    0.055869  -0.152773  -0.168535  -0.174639   0.367563
   28  C  6  X    0.022626  -0.032480   0.023804   0.081198   0.032604
   29  C  6  Y   -0.014483   0.032401   0.050471   0.021576  -0.027309
   30  C  6  Z   -0.000000  -0.000000   0.000000   0.000000  -0.000000
   31  C  7  S   -0.007085   0.029977   0.102768   0.095894   0.104083
   32  C  7  S    0.016626  -0.073298  -0.257395  -0.251380  -0.279077
   33  C  7  X    0.006116  -0.016458  -0.055509   0.010437  -0.053260
   34  C  7  Y    0.001773  -0.013736  -0.025858  -0.076961   0.067713
   35  C  7  Z   -0.000000  -0.000000   0.000000   0.000000  -0.000000
   36  C  8  S   -0.078300  -0.082414   0.065495  -0.083961  -0.028028
   37  C  8  S    0.176485   0.198377  -0.169854   0.227517   0.075500
   38  C  8  X    0.031736   0.090328   0.033228  -0.113137   0.049604
   39  C  8  Y    0.059875   0.045887  -0.023632   0.018075   0.020160
   40  C  8  Z   -0.000000  -0.000000   0.000000   0.000000  -0.000000
   41  C  9  S   -0.008171   0.037173   0.091277   0.130642  -0.034986
   42  C  9  S    0.019438  -0.092050  -0.228204  -0.343951   0.094229
   43  C  9  X    0.007742  -0.025976  -0.040272  -0.023384   0.069332
   44  C  9  Y   -0.000465   0.005352   0.040499   0.034439   0.104025
   45  C  9  Z   -0.000000  -0.000000   0.000000   0.000000  -0.000000
   46  C 10  S   -0.116209  -0.023253  -0.057133   0.072912   0.061971
   47  C 10  S    0.259964   0.056248   0.144026  -0.197159  -0.171155
   48  C 10  X   -0.070427   0.065540  -0.058012  -0.011535   0.043932
   49  C 10  Y   -0.043751  -0.133215   0.046440   0.037594  -0.060536
   50  C 10  Z   -0.000000  -0.000000   0.000000   0.000000  -0.000000
   51  H 11  S    0.004996  -0.009013  -0.051704   0.020407  -0.096918
   52  H 12  S    0.008413  -0.027451  -0.025750  -0.040546   0.094037
   53  H 13  S    0.023822   0.034588  -0.033517   0.053886   0.013331
   54  H 14  S    0.002033  -0.011794  -0.046469  -0.060800  -0.077294
   55  H 15  S    0.002354  -0.014753  -0.040776  -0.082973   0.025405
   56  H 16  S    0.034935   0.009459   0.026433  -0.047147  -0.044483

                     16         17         18         19         20
                   -0.6334    -0.6065    -0.5810    -0.5066    -0.4971
                     A          A          A          A          A   
    1  N  1  S   -0.053887   0.011601  -0.043827   0.012573  -0.033499
    2  N  1  S    0.190779  -0.042726   0.161875  -0.049273   0.134362
    3  N  1  X   -0.018738   0.245763   0.038903   0.180059   0.142358
    4  N  1  Y   -0.042544   0.001856   0.041365   0.079163  -0.041717
    5  N  1  Z    0.000000   0.000000  -0.000000  -0.000000   0.000000
    6  N  2  S    0.037195   0.056114   0.000710   0.031506  -0.023487
    7  N  2  S   -0.134420  -0.204598   0.000475  -0.123480   0.094018
    8  N  2  X   -0.098411   0.076164  -0.022545   0.018489  -0.126917
    9  N  2  Y   -0.200510   0.093393  -0.108863  -0.118894  -0.200832
   10  N  2  Z    0.000000   0.000000  -0.000000  -0.000000   0.000000
   11  C  3  S    0.022414  -0.084386   0.059132   0.013987   0.019405
   12  C  3  S   -0.063031   0.235234  -0.167273  -0.042056  -0.061932
   13  C  3  X    0.184769   0.039345  -0.063721   0.033176  -0.223884
   14  C  3  Y   -0.068558  -0.080476  -0.239328   0.063180   0.091708
   15  C  3  Z    0.000000   0.000000  -0.000000  -0.000000   0.000000
   16  C  4  S    0.046352   0.075075   0.060589  -0.018911   0.024412
   17  C  4  S   -0.132698  -0.216016  -0.176097   0.053833  -0.082274
   18  C  4  X    0.159065  -0.053233  -0.052873  -0.231002  -0.033764
   19  C  4  Y    0.035549  -0.141151   0.236131  -0.016221  -0.110151
   20  C  4  Z    0.000000   0.000000  -0.000000  -0.000000   0.000000
   21  C  5  S    0.073275   0.031663  -0.092582   0.063093  -0.032835
   22  C  5  S   -0.204074  -0.090738   0.271459  -0.204240   0.095769
   23  C  5  X   -0.040008   0.168324   0.018551  -0.096083   0.028754
   24  C  5  Y   -0.022810   0.010109  -0.116085   0.122534   0.153753
   25  C  5  Z    0.000000   0.000000  -0.000000  -0.000000   0.000000
   26  C  6  S    0.047830  -0.022350  -0.097288  -0.024569   0.025119
   27  C  6  S   -0.129138   0.064522   0.283783   0.070201  -0.086235
   28  C  6  X   -0.101501  -0.167758  -0.014049   0.160978  -0.114174
   29  C  6  Y    0.025101  -0.010423   0.104239  -0.096593  -0.165006
   30  C  6  Z    0.000000   0.000000  -0.000000  -0.000000   0.000000
   31  C  7  S   -0.054133   0.080683   0.045950  -0.062472   0.046166
   32  C  7  S    0.155833  -0.231585  -0.131886   0.191897  -0.154637
   33  C  7  X   -0.099028  -0.013054   0.078512  -0.021558   0.244446
   34  C  7  Y    0.098183   0.115596  -0.112796  -0.004895   0.107833
   35  C  7  Z    0.000000   0.000000  -0.000000  -0.000000   0.000000
   36  C  8  S   -0.123845  -0.011693  -0.060525  -0.067667   0.015703
   37  C  8  S    0.359521   0.034718   0.187188   0.224396  -0.043147
   38  C  8  X   -0.000974  -0.196252   0.051098   0.029627   0.265574
   39  C  8  Y   -0.025222  -0.012776  -0.142286  -0.155273   0.000289
   40  C  8  Z    0.000000   0.000000  -0.000000  -0.000000   0.000000
   41  C  9  S   -0.090609  -0.081623   0.026005   0.062037  -0.025425
   42  C  9  S    0.258272   0.233766  -0.073069  -0.198852   0.072805
   43  C  9  X   -0.085877   0.017336   0.082202   0.108117   0.148578
   44  C  9  Y   -0.048003   0.101360   0.137170  -0.172580  -0.010029
   45  C  9  Z    0.000000   0.000000  -0.000000  -0.000000   0.000000
   46  C 10  S    0.076857  -0.101776  -0.000384  -0.056470   0.037772
   47  C 10  S   -0.228739   0.309098   0.003120   0.188920  -0.126536
   48  C 10  X   -0.117541   0.010976  -0.020994   0.101940  -0.200423
   49  C 10  Y    0.111139   0.109572   0.102957   0.231138   0.101008
   50  C 10  Z    0.000000   0.000000  -0.000000  -0.000000   0.000000
   51  H 11  S   -0.056618  -0.037243   0.163558  -0.153201  -0.057312
   52  H 12  S   -0.031214   0.016733   0.154125  -0.029521  -0.132146
   53  H 13  S    0.127120   0.012506   0.140035   0.177643  -0.010686
   54  H 14  S    0.068514  -0.103996  -0.056063   0.094455  -0.232903
   55  H 15  S    0.107884   0.100812  -0.027632  -0.194005  -0.051276
   56  H 16  S   -0.088146   0.131023   0.014367   0.191505  -0.122548

                     21         22         23         24         25
                   -0.4677    -0.4287    -0.4088    -0.3949    -0.3900
                     A          A          A          A          A   
    1  N  1  S    0.020364   0.016170  -0.017567  -0.000402   0.000000
    2  N  1  S   -0.086465  -0.066542   0.073046   0.001843   0.000000
    3  N  1  X    0.239600   0.086015   0.140586  -0.188030   0.000000
    4  N  1  Y   -0.059074   0.022070   0.063474   0.004568   0.000000
    5  N  1  Z   -0.000000   0.000000   0.000000  -0.000000   0.306251
    6  N  2  S    0.029044  -0.009848  -0.024985  -0.003366   0.000000
    7  N  2  S   -0.116678   0.038911   0.109913   0.009362   0.000000
    8  N  2  X   -0.149241  -0.022287  -0.087068   0.095742   0.000000
    9  N  2  Y   -0.036120  -0.207193  -0.100425  -0.067983   0.000000
   10  N  2  Z   -0.000000   0.000000   0.000000  -0.000000   0.264471
   11  C  3  S   -0.006137   0.006397  -0.054472  -0.017190   0.000000
   12  C  3  S    0.015900  -0.016468   0.187841   0.063780   0.000000
   13  C  3  X    0.197678  -0.095985  -0.263486  -0.038693   0.000000
   14  C  3  Y    0.144672   0.244905  -0.102492   0.131173   0.000000
   15  C  3  Z   -0.000000   0.000000   0.000000  -0.000000   0.322747
   16  C  4  S    0.036592  -0.062530   0.033622   0.000611   0.000000
   17  C  4  S   -0.124581   0.211196  -0.117150   0.003947   0.000000
   18  C  4  X   -0.031547  -0.088480  -0.115674   0.270188   0.000000
   19  C  4  Y   -0.194878  -0.181777   0.041734  -0.093481   0.000000
   20  C  4  Z   -0.000000   0.000000   0.000000  -0.000000   0.365438
   21  C  5  S    0.008355  -0.020687   0.002943  -0.012342   0.000000
   22  C  5  S   -0.024481   0.076114  -0.013814   0.033191   0.000000
   23  C  5  X   -0.217744  -0.005712   0.266471  -0.175971   0.000000
   24  C  5  Y   -0.042533  -0.214558   0.225175   0.305366   0.000000
   25  C  5  Z   -0.000000   0.000000   0.000000  -0.000000   0.167653
   26  C  6  S   -0.065168   0.027525  -0.010941   0.023894   0.000000
   27  C  6  S    0.214836  -0.093325   0.042128  -0.074149   0.000000
   28  C  6  X   -0.126755   0.038523   0.166849  -0.171343   0.000000
   29  C  6  Y    0.109735  -0.062750   0.267037   0.265018   0.000000
   30  C  6  Z   -0.000000   0.000000   0.000000  -0.000000   0.181195
   31  C  7  S   -0.028591   0.042072  -0.013957  -0.015224   0.000000
   32  C  7  S    0.095612  -0.135578   0.053025   0.049332   0.000000
   33  C  7  X   -0.000261  -0.166004  -0.187599   0.233847   0.000000
   34  C  7  Y   -0.239909  -0.145611   0.044584  -0.150584   0.000000
   35  C  7  Z   -0.000000   0.000000   0.000000  -0.000000   0.117770
   36  C  8  S   -0.004287   0.012180   0.029480  -0.007303   0.000000
   37  C  8  S    0.007187  -0.035400  -0.098021   0.031296   0.000000
   38  C  8  X   -0.017185   0.240558   0.115548   0.061292   0.000000
   39  C  8  Y    0.250060  -0.059807   0.092369  -0.099704   0.000000
   40  C  8  Z   -0.000000   0.000000   0.000000  -0.000000   0.271550
   41  C  9  S    0.045672  -0.015850   0.037057   0.009857   0.000000
   42  C  9  S   -0.147596   0.062252  -0.123186  -0.030747   0.000000
   43  C  9  X    0.141347  -0.240939  -0.235990  -0.056352   0.000000
   44  C  9  Y    0.135307   0.204185  -0.055876   0.176613   0.000000
   45  C  9  Z   -0.000000   0.000000   0.000000  -0.000000   0.120578
   46  C 10  S   -0.001134  -0.007131   0.011504   0.005329   0.000000
   47  C 10  S    0.000722   0.026301  -0.040875  -0.017628   0.000000
   48  C 10  X   -0.213160   0.088126  -0.133068   0.245102   0.000000
   49  C 10  Y    0.074209   0.193146   0.073051   0.039233   0.000000
   50  C 10  Z   -0.000000   0.000000   0.000000  -0.000000   0.284679
   51  H 11  S    0.015417   0.203582  -0.201670  -0.240213   0.000000
   52  H 12  S    0.161641  -0.090174   0.231328   0.181309   0.000000
   53  H 13  S   -0.159987   0.044343  -0.128152   0.088884   0.000000
   54  H 14  S    0.123959   0.103184   0.140913  -0.085815   0.000000
   55  H 15  S   -0.100745   0.268677   0.081664   0.104126   0.000000
   56  H 16  S   -0.085477   0.138282  -0.082219   0.175970   0.000000

                     26         27         28         29         30
                   -0.3740    -0.3367    -0.3266    -0.3128    -0.2723
                     A          A          A          A          A   
    1  N  1  S   -0.007021  -0.035185   0.025588  -0.000000  -0.000000
    2  N  1  S    0.023451   0.156872  -0.113579  -0.000000  -0.000000
    3  N  1  X   -0.086303  -0.174936   0.009224  -0.000000  -0.000000
    4  N  1  Y    0.160397   0.048277  -0.122837  -0.000000  -0.000000
    5  N  1  Z    0.000000  -0.000000   0.000000   0.155134   0.435609
    6  N  2  S    0.000508  -0.034968  -0.002168  -0.000000  -0.000000
    7  N  2  S    0.000364   0.155386   0.005045  -0.000000  -0.000000
    8  N  2  X   -0.149938   0.049919   0.059779  -0.000000  -0.000000
    9  N  2  Y   -0.211644  -0.157704  -0.050365  -0.000000  -0.000000
   10  N  2  Z    0.000000  -0.000000   0.000000   0.371785  -0.264658
   11  C  3  S   -0.001751  -0.033783   0.000617  -0.000000  -0.000000
   12  C  3  S    0.009120   0.124546  -0.004229  -0.000000  -0.000000
   13  C  3  X    0.173128  -0.130768  -0.030840  -0.000000  -0.000000
   14  C  3  Y   -0.068866  -0.092186   0.219554  -0.000000  -0.000000
   15  C  3  Z    0.000000  -0.000000   0.000000  -0.139665  -0.268088
   16  C  4  S    0.005469   0.020798  -0.008323  -0.000000  -0.000000
   17  C  4  S   -0.019002  -0.064857   0.030037  -0.000000  -0.000000
   18  C  4  X    0.017646   0.191912   0.186466  -0.000000  -0.000000
   19  C  4  Y    0.145054  -0.001974  -0.250544  -0.000000  -0.000000
   20  C  4  Z    0.000000  -0.000000   0.000000  -0.131221   0.336995
   21  C  5  S   -0.018494   0.016355   0.005902  -0.000000  -0.000000
   22  C  5  S    0.070780  -0.059629  -0.010681  -0.000000  -0.000000
   23  C  5  X   -0.042603   0.255496   0.100659  -0.000000  -0.000000
   24  C  5  Y   -0.071239  -0.008780  -0.233500  -0.000000  -0.000000
   25  C  5  Z    0.000000  -0.000000   0.000000  -0.275290  -0.288876
   26  C  6  S    0.011386  -0.011383   0.000636  -0.000000  -0.000000
   27  C  6  S   -0.039783   0.038938   0.014268  -0.000000  -0.000000
   28  C  6  X    0.101351  -0.330925  -0.074573  -0.000000  -0.000000
   29  C  6  Y    0.038709  -0.122259   0.301439  -0.000000  -0.000000
   30  C  6  Z    0.000000  -0.000000   0.000000  -0.261885   0.241993
   31  C  7  S    0.001067   0.002603  -0.008521  -0.000000  -0.000000
   32  C  7  S   -0.010804   0.004425   0.028069  -0.000000  -0.000000
   33  C  7  X    0.140126  -0.291186  -0.071803  -0.000000  -0.000000
   34  C  7  Y    0.163026  -0.079708   0.332444  -0.000000  -0.000000
   35  C  7  Z    0.000000  -0.000000   0.000000  -0.345368  -0.162475
   36  C  8  S   -0.017234   0.023234   0.024134  -0.000000  -0.000000
   37  C  8  S    0.056149  -0.082701  -0.087222  -0.000000  -0.000000
   38  C  8  X    0.031542   0.092847   0.125039  -0.000000  -0.000000
   39  C  8  Y    0.409264   0.064599  -0.133818  -0.000000  -0.000000
   40  C  8  Z    0.000000  -0.000000   0.000000   0.173738  -0.415555
   41  C  9  S   -0.017547  -0.004000  -0.002781  -0.000000  -0.000000
   42  C  9  S    0.062138   0.004281  -0.000242  -0.000000  -0.000000
   43  C  9  X   -0.044558   0.337841   0.061150  -0.000000  -0.000000
   44  C  9  Y   -0.145198   0.094039  -0.324371  -0.000000  -0.000000
   45  C  9  Z    0.000000  -0.000000   0.000000  -0.338532   0.049637
   46  C 10  S    0.014398   0.031970  -0.004056  -0.000000  -0.000000
   47  C 10  S   -0.051719  -0.118598   0.014677  -0.000000  -0.000000
   48  C 10  X    0.237502   0.187403   0.016577  -0.000000  -0.000000
   49  C 10  Y    0.252656   0.078773   0.004222  -0.000000  -0.000000
   50  C 10  Z    0.000000  -0.000000   0.000000   0.357275   0.139062
   51  H 11  S    0.085442  -0.034705   0.246185  -0.000000  -0.000000
   52  H 12  S    0.015084  -0.094844   0.304899  -0.000000  -0.000000
   53  H 13  S   -0.330472  -0.117785   0.112740  -0.000000  -0.000000
   54  H 14  S   -0.190802   0.302113  -0.091712  -0.000000  -0.000000
   55  H 15  S   -0.001719  -0.242014  -0.232320  -0.000000  -0.000000
   56  H 16  S    0.262726   0.120809   0.030278  -0.000000  -0.000000

                     31         32         33         34         35
                   -0.2275    -0.2159    -0.1839    -0.1574     0.0064
                     A          A          A          A          A   
    1  N  1  S    0.000000  -0.090750   0.000000  -0.067973   0.000000
    2  N  1  S    0.000000   0.445714   0.000000   0.342121   0.000000
    3  N  1  X    0.000000   0.166504   0.000000  -0.095724   0.000000
    4  N  1  Y    0.000000   0.447554   0.000000   0.611559   0.000000
    5  N  1  Z   -0.004617   0.000000  -0.350142   0.000000   0.466034
    6  N  2  S    0.000000  -0.097171   0.000000   0.063357   0.000000
    7  N  2  S    0.000000   0.478106   0.000000  -0.319704   0.000000
    8  N  2  X    0.000000   0.500903   0.000000  -0.450722   0.000000
    9  N  2  Y    0.000000  -0.098990   0.000000   0.370564   0.000000
   10  N  2  Z    0.313250   0.000000   0.221297   0.000000  -0.315058
   11  C  3  S    0.000000  -0.039506   0.000000  -0.001974   0.000000
   12  C  3  S    0.000000   0.160917   0.000000   0.007330   0.000000
   13  C  3  X    0.000000   0.160258   0.000000  -0.117980   0.000000
   14  C  3  Y    0.000000   0.093527   0.000000   0.215991   0.000000
   15  C  3  Z   -0.427181   0.000000  -0.046272   0.000000  -0.017448
   16  C  4  S    0.000000   0.022926   0.000000   0.019703   0.000000
   17  C  4  S    0.000000  -0.089917   0.000000  -0.074599   0.000000
   18  C  4  X    0.000000  -0.130417   0.000000  -0.064209   0.000000
   19  C  4  Y    0.000000  -0.125120   0.000000  -0.097263   0.000000
   20  C  4  Z   -0.331572   0.000000   0.098192   0.000000  -0.087532
   21  C  5  S    0.000000   0.020181   0.000000   0.003123   0.000000
   22  C  5  S    0.000000  -0.078957   0.000000  -0.012189   0.000000
   23  C  5  X    0.000000  -0.125184   0.000000   0.008749   0.000000
   24  C  5  Y    0.000000  -0.072755   0.000000  -0.021185   0.000000
   25  C  5  Z   -0.012937   0.000000  -0.457354   0.000000  -0.433525
   26  C  6  S    0.000000   0.008489   0.000000   0.022203   0.000000
   27  C  6  S    0.000000  -0.038316   0.000000  -0.096999   0.000000
   28  C  6  X    0.000000  -0.013635   0.000000  -0.104496   0.000000
   29  C  6  Y    0.000000   0.031182   0.000000   0.048673   0.000000
   30  C  6  Z    0.095768   0.000000   0.469758   0.000000  -0.411227
   31  C  7  S    0.000000  -0.005549   0.000000   0.006435   0.000000
   32  C  7  S    0.000000   0.019346   0.000000  -0.027010   0.000000
   33  C  7  X    0.000000   0.043664   0.000000  -0.040509   0.000000
   34  C  7  Y    0.000000   0.006173   0.000000   0.030077   0.000000
   35  C  7  Z    0.382008   0.000000  -0.283916   0.000000   0.255861
   36  C  8  S    0.000000   0.024910   0.000000  -0.018066   0.000000
   37  C  8  S    0.000000  -0.100305   0.000000   0.072543   0.000000
   38  C  8  X    0.000000  -0.172462   0.000000   0.102693   0.000000
   39  C  8  Y    0.000000  -0.055598   0.000000   0.004062   0.000000
   40  C  8  Z   -0.101451   0.000000   0.312947   0.000000   0.520533
   41  C  9  S    0.000000  -0.001562   0.000000  -0.003715   0.000000
   42  C  9  S    0.000000   0.006741   0.000000   0.013759   0.000000
   43  C  9  X    0.000000  -0.013143   0.000000   0.026655   0.000000
   44  C  9  Y    0.000000  -0.027802   0.000000  -0.001336   0.000000
   45  C  9  Z    0.431467   0.000000   0.260351   0.000000   0.311216
   46  C 10  S    0.000000   0.056653   0.000000   0.001469   0.000000
   47  C 10  S    0.000000  -0.216318   0.000000  -0.005503   0.000000
   48  C 10  X    0.000000   0.018715   0.000000   0.096818   0.000000
   49  C 10  Y    0.000000   0.025226   0.000000  -0.159437   0.000000
   50  C 10  Z    0.336639   0.000000  -0.242270   0.000000  -0.269247
   51  H 11  S    0.000000   0.048133   0.000000   0.065956   0.000000
   52  H 12  S    0.000000   0.044176   0.000000   0.045184   0.000000
   53  H 13  S    0.000000  -0.049992   0.000000   0.150244   0.000000
   54  H 14  S    0.000000  -0.051137   0.000000   0.019803   0.000000
   55  H 15  S    0.000000   0.001346   0.000000  -0.032844   0.000000
   56  H 16  S    0.000000  -0.224741   0.000000  -0.009603   0.000000

                     36         37         38         39         40
                    0.0564     0.1069     0.1632     0.2771     0.3416
                     A          A          A          A          A   
    1  N  1  S    0.000000   0.000000  -0.000000   0.000000  -0.043396
    2  N  1  S    0.000000   0.000000  -0.000000   0.000000   0.289940
    3  N  1  X    0.000000   0.000000  -0.000000   0.000000  -0.108665
    4  N  1  Y    0.000000   0.000000  -0.000000   0.000000  -0.189605
    5  N  1  Z   -0.057056   0.428873   0.333197   0.375750   0.000000
    6  N  2  S    0.000000   0.000000  -0.000000   0.000000   0.008773
    7  N  2  S    0.000000   0.000000  -0.000000   0.000000  -0.060865
    8  N  2  X    0.000000   0.000000  -0.000000   0.000000   0.107754
    9  N  2  Y    0.000000   0.000000  -0.000000   0.000000   0.026736
   10  N  2  Z   -0.458643  -0.148175   0.498628   0.283114   0.000000
   11  C  3  S    0.000000   0.000000  -0.000000   0.000000   0.030931
   12  C  3  S    0.000000   0.000000  -0.000000   0.000000  -0.197846
   13  C  3  X    0.000000   0.000000  -0.000000   0.000000  -0.073386
   14  C  3  Y    0.000000   0.000000  -0.000000   0.000000   0.145041
   15  C  3  Z    0.472777  -0.407531   0.099461   0.610197   0.000000
   16  C  4  S    0.000000   0.000000  -0.000000   0.000000   0.061842
   17  C  4  S    0.000000   0.000000  -0.000000   0.000000  -0.376599
   18  C  4  X    0.000000   0.000000  -0.000000   0.000000  -0.087038
   19  C  4  Y    0.000000   0.000000  -0.000000   0.000000  -0.085227
   20  C  4  Z   -0.478420  -0.409403  -0.044697  -0.597980   0.000000
   21  C  5  S    0.000000   0.000000  -0.000000   0.000000   0.048124
   22  C  5  S    0.000000   0.000000  -0.000000   0.000000  -0.299288
   23  C  5  X    0.000000   0.000000  -0.000000   0.000000   0.082558
   24  C  5  Y    0.000000   0.000000  -0.000000   0.000000   0.340905
   25  C  5  Z   -0.008896   0.514191   0.277123  -0.415808   0.000000
   26  C  6  S    0.000000   0.000000  -0.000000   0.000000   0.031448
   27  C  6  S    0.000000   0.000000  -0.000000   0.000000  -0.197706
   28  C  6  X    0.000000   0.000000  -0.000000   0.000000   0.127175
   29  C  6  Y    0.000000   0.000000  -0.000000   0.000000  -0.311558
   30  C  6  Z    0.068699   0.505477  -0.324954   0.420005   0.000000
   31  C  7  S    0.000000   0.000000  -0.000000   0.000000   0.063251
   32  C  7  S    0.000000   0.000000  -0.000000   0.000000  -0.397005
   33  C  7  X    0.000000   0.000000  -0.000000   0.000000   0.380800
   34  C  7  Y    0.000000   0.000000  -0.000000   0.000000   0.189212
   35  C  7  Z   -0.443344  -0.251853  -0.521501   0.343536   0.000000
   36  C  8  S    0.000000   0.000000  -0.000000   0.000000  -0.041751
   37  C  8  S    0.000000   0.000000  -0.000000   0.000000   0.253415
   38  C  8  X    0.000000   0.000000  -0.000000   0.000000  -0.106283
   39  C  8  Y    0.000000   0.000000  -0.000000   0.000000   0.152268
   40  C  8  Z   -0.013473   0.427101  -0.348634  -0.366771   0.000000
   41  C  9  S    0.000000   0.000000  -0.000000   0.000000   0.063816
   42  C  9  S    0.000000   0.000000  -0.000000   0.000000  -0.397333
   43  C  9  X    0.000000   0.000000  -0.000000   0.000000   0.367368
   44  C  9  Y    0.000000   0.000000  -0.000000   0.000000  -0.198260
   45  C  9  Z    0.410390  -0.199158   0.538940  -0.345378   0.000000
   46  C 10  S    0.000000   0.000000  -0.000000   0.000000   0.032648
   47  C 10  S    0.000000   0.000000  -0.000000   0.000000  -0.192147
   48  C 10  X    0.000000   0.000000  -0.000000   0.000000   0.034471
   49  C 10  Y    0.000000   0.000000  -0.000000   0.000000  -0.087016
   50  C 10  Z    0.515335  -0.199002  -0.487274  -0.267662   0.000000
   51  H 11  S    0.000000   0.000000  -0.000000   0.000000   0.524613
   52  H 12  S    0.000000   0.000000  -0.000000   0.000000   0.444871
   53  H 13  S    0.000000   0.000000  -0.000000   0.000000  -0.002209
   54  H 14  S    0.000000   0.000000  -0.000000   0.000000   0.660930
   55  H 15  S    0.000000   0.000000  -0.000000   0.000000   0.658615
   56  H 16  S    0.000000   0.000000  -0.000000   0.000000   0.138572

                     41         42         43         44         45
                    0.3633     0.3955     0.4074     0.4134     0.4485
                     A          A          A          A          A   
    1  N  1  S   -0.063303  -0.010517   0.066266  -0.072094   0.003148
    2  N  1  S    0.428087   0.079145  -0.436458   0.498418  -0.021920
    3  N  1  X   -0.140808  -0.288387   0.024377   0.107321   0.422646
    4  N  1  Y   -0.180889  -0.123662   0.287297  -0.262438  -0.004099
    5  N  1  Z   -0.000000   0.000000   0.000000  -0.000000  -0.000000
    6  N  2  S   -0.016736   0.053184   0.061715   0.081435  -0.044903
    7  N  2  S    0.111154  -0.350258  -0.405394  -0.559321   0.320951
    8  N  2  X   -0.225184   0.157169   0.069047   0.437494  -0.129927
    9  N  2  Y   -0.077481  -0.168355  -0.180666   0.174348   0.350163
   10  N  2  Z   -0.000000   0.000000   0.000000  -0.000000  -0.000000
   11  C  3  S    0.001919  -0.042596   0.020307   0.077648   0.124436
   12  C  3  S   -0.008180   0.268914  -0.100435  -0.477247  -0.798665
   13  C  3  X   -0.216768  -0.450893   0.175611   0.061534  -0.089377
   14  C  3  Y   -0.405944   0.196447  -0.160469   0.253942  -0.206716
   15  C  3  Z   -0.000000   0.000000   0.000000  -0.000000  -0.000000
   16  C  4  S   -0.001418   0.034179  -0.077220   0.070084  -0.126658
   17  C  4  S    0.016577  -0.206471   0.471391  -0.436781   0.807610
   18  C  4  X   -0.258206  -0.377071   0.206733   0.018730   0.116310
   19  C  4  Y   -0.462383   0.231203  -0.004471  -0.202293  -0.231876
   20  C  4  Z   -0.000000   0.000000   0.000000  -0.000000  -0.000000
   21  C  5  S    0.026110   0.083087  -0.025713  -0.134053   0.019454
   22  C  5  S   -0.155678  -0.514597   0.154287   0.837822  -0.129707
   23  C  5  X   -0.182064  -0.368556   0.177967   0.035905   0.271375
   24  C  5  Y   -0.403361   0.266683  -0.240601   0.028216   0.200369
   25  C  5  Z   -0.000000   0.000000   0.000000  -0.000000  -0.000000
   26  C  6  S    0.027886   0.026899   0.066020  -0.092969  -0.026021
   27  C  6  S   -0.171535  -0.167999  -0.407617   0.579581   0.166347
   28  C  6  X   -0.142214  -0.182397   0.065761  -0.000834  -0.269190
   29  C  6  Y   -0.400967   0.189209  -0.061091  -0.196952   0.236326
   30  C  6  Z   -0.000000   0.000000   0.000000  -0.000000  -0.000000
   31  C  7  S   -0.030373   0.001237   0.016280   0.047369  -0.085610
   32  C  7  S    0.183131  -0.013974  -0.097667  -0.288394   0.541060
   33  C  7  X   -0.116326  -0.136919   0.231124  -0.321200   0.095151
   34  C  7  Y   -0.293516   0.076703  -0.049336   0.095969   0.313192
   35  C  7  Z   -0.000000   0.000000   0.000000  -0.000000  -0.000000
   36  C  8  S   -0.020724  -0.120517  -0.045750  -0.125701  -0.076930
   37  C  8  S    0.130304   0.754563   0.274173   0.767578   0.489094
   38  C  8  X   -0.123574  -0.061143   0.301180   0.297339  -0.243394
   39  C  8  Y   -0.414809  -0.205503  -0.290845   0.298802  -0.248487
   40  C  8  Z   -0.000000   0.000000   0.000000  -0.000000  -0.000000
   41  C  9  S    0.020995  -0.031820  -0.014495   0.032142   0.094525
   42  C  9  S   -0.128337   0.199081   0.079879  -0.197918  -0.599697
   43  C  9  X   -0.057745  -0.206376   0.314517  -0.276536  -0.033941
   44  C  9  Y   -0.273177   0.188159  -0.085073  -0.162202   0.272517
   45  C  9  Z   -0.000000   0.000000   0.000000  -0.000000  -0.000000
   46  C 10  S    0.048278  -0.081403  -0.154310   0.023518   0.078834
   47  C 10  S   -0.295958   0.490969   0.949929  -0.137411  -0.493919
   48  C 10  X   -0.003497   0.025368   0.269222   0.426363   0.244610
   49  C 10  Y   -0.237872  -0.114800   0.073081  -0.231574   0.234045
   50  C 10  Z   -0.000000   0.000000   0.000000  -0.000000  -0.000000
   51  H 11  S   -0.322559   0.562296  -0.298263  -0.384437   0.261379
   52  H 12  S    0.537500  -0.100746   0.269257  -0.099083  -0.298958
   53  H 13  S   -0.475186  -0.614889  -0.450331  -0.134797  -0.453982
   54  H 14  S   -0.368799  -0.087227   0.230439  -0.065969  -0.051876
   55  H 15  S    0.164897  -0.381775   0.252969  -0.044501   0.140610
   56  H 16  S    0.320754  -0.234336  -0.788224  -0.165376  -0.042273

                     46         47         48         49         50
                    0.4533     0.4792     0.5056     0.5287     0.5592
                     A          A          A          A          A   
    1  N  1  S    0.012719   0.004398   0.052329  -0.021120   0.036187
    2  N  1  S   -0.088358  -0.022837  -0.366769   0.154625  -0.272173
    3  N  1  X    0.174659  -0.029791  -0.434685   0.231632  -0.021582
    4  N  1  Y   -0.024152  -0.159783   0.320034  -0.003098   0.020680
    5  N  1  Z    0.000000   0.000000  -0.000000   0.000000   0.000000
    6  N  2  S   -0.042156  -0.011791   0.016174   0.074469  -0.020007
    7  N  2  S    0.297273   0.086168  -0.110069  -0.541605   0.151415
    8  N  2  X   -0.028701   0.100398   0.117841   0.376865   0.219053
    9  N  2  Y    0.256109   0.230680  -0.372080  -0.031892   0.440204
   10  N  2  Z    0.000000   0.000000  -0.000000   0.000000   0.000000
   11  C  3  S    0.079028   0.024537   0.105233   0.020690  -0.037268
   12  C  3  S   -0.497921  -0.173359  -0.681370  -0.130764   0.270643
   13  C  3  X   -0.124901  -0.198172   0.197473   0.211524  -0.406616
   14  C  3  Y    0.030997  -0.008053   0.177788   0.034104   0.510156
   15  C  3  Z    0.000000   0.000000  -0.000000   0.000000   0.000000
   16  C  4  S   -0.078565  -0.038165  -0.048952  -0.018334   0.018581
   17  C  4  S    0.482698   0.233499   0.324516   0.117176  -0.137592
   18  C  4  X   -0.092327  -0.200548  -0.306035  -0.170891   0.010922
   19  C  4  Y    0.037327   0.175857  -0.010752   0.024347   0.509814
   20  C  4  Z    0.000000   0.000000  -0.000000   0.000000   0.000000
   21  C  5  S   -0.082168   0.034549  -0.105802   0.040564  -0.024822
   22  C  5  S    0.504809  -0.214532   0.696290  -0.265885   0.175278
   23  C  5  X   -0.160439   0.102426   0.136663   0.591599  -0.126289
   24  C  5  Y    0.036304   0.088911   0.112210  -0.080272  -0.447932
   25  C  5  Z    0.000000   0.000000  -0.000000   0.000000   0.000000
   26  C  6  S    0.118708   0.094874   0.026655   0.096243   0.040393
   27  C  6  S   -0.737884  -0.616906  -0.179904  -0.639383  -0.285940
   28  C  6  X    0.064080  -0.237167  -0.466159   0.361563   0.042118
   29  C  6  Y   -0.020661  -0.378952  -0.129266   0.106098   0.311702
   30  C  6  Z    0.000000   0.000000  -0.000000   0.000000   0.000000
   31  C  7  S    0.140561  -0.080033  -0.018847  -0.105135  -0.010904
   32  C  7  S   -0.879125   0.519567   0.131282   0.713333   0.073179
   33  C  7  X    0.094546  -0.300645  -0.214699   0.217597  -0.248671
   34  C  7  Y   -0.000246  -0.173290   0.461038  -0.154942  -0.027005
   35  C  7  Z    0.000000   0.000000  -0.000000   0.000000   0.000000
   36  C  8  S   -0.044604   0.002033  -0.011269  -0.046860  -0.083757
   37  C  8  S    0.288915  -0.016819   0.081051   0.296693   0.575096
   38  C  8  X   -0.290877  -0.061395  -0.330391   0.426306  -0.044246
   39  C  8  Y    0.004898   0.591233   0.097807   0.119056  -0.031914
   40  C  8  Z    0.000000   0.000000  -0.000000   0.000000   0.000000
   41  C  9  S   -0.153019   0.014054   0.088340  -0.061144   0.013573
   42  C  9  S    0.955959  -0.093594  -0.591444   0.408799  -0.089587
   43  C  9  X   -0.153799   0.011967  -0.107722   0.235215   0.652451
   44  C  9  Y    0.056921   0.139446   0.204270   0.535445  -0.143209
   45  C  9  Z    0.000000   0.000000  -0.000000   0.000000   0.000000
   46  C 10  S    0.063411  -0.014986  -0.075926   0.039688   0.045284
   47  C 10  S   -0.399378   0.100784   0.490462  -0.260198  -0.305860
   48  C 10  X   -0.060408   0.335510  -0.651424  -0.200627  -0.360288
   49  C 10  Y    0.221938   0.463993  -0.132935  -0.573384   0.355249
   50  C 10  Z    0.000000   0.000000  -0.000000   0.000000   0.000000
   51  H 11  S   -0.234144   0.171823  -0.213952   0.071329  -0.409388
   52  H 12  S    0.405141   0.624296   0.173942   0.191374  -0.147877
   53  H 13  S   -0.095221   0.518003   0.063169  -0.090801  -0.240098
   54  H 14  S    0.521865  -0.544918  -0.018045  -0.195587  -0.212094
   55  H 15  S   -0.635768  -0.017258   0.079690  -0.228948   0.541109
   56  H 16  S    0.148529  -0.504103   0.283764   0.489983   0.231215

                     51         52         53         54         55
                    0.5960     0.6395     0.6526     0.6935     0.7734
                     A          A          A          A          A   
    1  N  1  S    0.073271   0.010660   0.042313   0.014918  -0.024346
    2  N  1  S   -0.543500  -0.082700  -0.309662  -0.122610   0.182903
    3  N  1  X    0.105437   0.517567   0.144023  -0.498566   0.290831
    4  N  1  Y    0.412543   0.002167   0.240871  -0.016336  -0.214086
    5  N  1  Z    0.000000  -0.000000  -0.000000   0.000000   0.000000
    6  N  2  S   -0.003529   0.018761   0.058231  -0.026464  -0.021235
    7  N  2  S    0.033514  -0.149606  -0.433346   0.203014   0.157744
    8  N  2  X    0.087689   0.031996   0.438668   0.181445  -0.278040
    9  N  2  Y    0.074379   0.124970   0.086410   0.642863  -0.163488
   10  N  2  Z    0.000000  -0.000000  -0.000000   0.000000   0.000000
   11  C  3  S    0.035607  -0.111654   0.011749  -0.058460  -0.006083
   12  C  3  S   -0.240440   0.803746  -0.073101   0.423624   0.048676
   13  C  3  X    0.052340   0.336561  -0.347604   0.400421   0.558682
   14  C  3  Y    0.132316  -0.257435  -0.491685   0.064213   0.671866
   15  C  3  Z    0.000000  -0.000000  -0.000000   0.000000   0.000000
   16  C  4  S    0.011809  -0.049125  -0.110180   0.060228  -0.007671
   17  C  4  S   -0.100863   0.337950   0.794699  -0.428229   0.045948
   18  C  4  X    0.812930   0.067922  -0.029061  -0.118516  -0.399606
   19  C  4  Y    0.000951   0.538840   0.036806   0.024747   0.704274
   20  C  4  Z    0.000000  -0.000000  -0.000000   0.000000   0.000000
   21  C  5  S   -0.004774  -0.029664   0.066087   0.028509  -0.027592
   22  C  5  S    0.035014   0.219950  -0.479387  -0.200674   0.204300
   23  C  5  X    0.108443  -0.634438  -0.088780   0.316630   0.609118
   24  C  5  Y    0.600946   0.210858  -0.076437  -0.169828   0.198746
   25  C  5  Z    0.000000  -0.000000  -0.000000   0.000000   0.000000
   26  C  6  S   -0.043842   0.044469  -0.018902  -0.042330   0.023036
   27  C  6  S    0.318319  -0.317999   0.143094   0.299731  -0.178854
   28  C  6  X    0.313713  -0.321871  -0.661510  -0.195373  -0.631133
   29  C  6  Y   -0.495027  -0.290035   0.191249  -0.364062   0.088128
   30  C  6  Z    0.000000  -0.000000  -0.000000   0.000000   0.000000
   31  C  7  S    0.018790   0.027678   0.043039  -0.037401   0.014751
   32  C  7  S   -0.134374  -0.202740  -0.319435   0.269543  -0.109223
   33  C  7  X   -0.452043  -0.371772   0.286959   0.499399   0.093415
   34  C  7  Y   -0.459501   0.582183  -0.426848   0.052991  -0.558675
   35  C  7  Z    0.000000  -0.000000  -0.000000   0.000000   0.000000
   36  C  8  S   -0.035396   0.044492  -0.040270  -0.006131   0.028604
   37  C  8  S    0.251100  -0.326498   0.276275   0.031158  -0.213805
   38  C  8  X   -0.032180   0.590202   0.341754   0.567641  -0.177060
   39  C  8  Y   -0.226241  -0.239462   0.492875  -0.302288  -0.376130
   40  C  8  Z    0.000000  -0.000000  -0.000000   0.000000   0.000000
   41  C  9  S   -0.033681   0.059753   0.003539   0.034695  -0.009721
   42  C  9  S    0.241899  -0.437800  -0.024424  -0.247922   0.072278
   43  C  9  X   -0.064461   0.022862  -0.268753  -0.556034  -0.155103
   44  C  9  Y   -0.250447   0.203792  -0.692223   0.103371  -0.566518
   45  C  9  Z    0.000000  -0.000000  -0.000000   0.000000   0.000000
   46  C 10  S   -0.005332   0.045344  -0.002704   0.016956   0.019720
   47  C 10  S    0.037320  -0.319329   0.016951  -0.124533  -0.147125
   48  C 10  X   -0.386648   0.054304  -0.317018  -0.351313   0.259373
   49  C 10  Y    0.073885  -0.254037  -0.161965   0.675244  -0.201304
   50  C 10  Z    0.000000  -0.000000  -0.000000   0.000000   0.000000
   51  H 11  S    0.452081   0.083233   0.111378  -0.029092   0.064612
   52  H 12  S    0.252741   0.329146  -0.184668   0.144025   0.006789
   53  H 13  S   -0.285452  -0.076382   0.207975  -0.252013  -0.158803
   54  H 14  S   -0.423149   0.041888   0.133305   0.223647  -0.088338
   55  H 15  S   -0.030397   0.084925   0.098250  -0.277960   0.077069
   56  H 16  S    0.193548   0.188788   0.233513   0.017442  -0.015531

                     56
                    0.8176
                     A   
    1  N  1  S   -0.027144
    2  N  1  S    0.217179
    3  N  1  X   -0.434243
    4  N  1  Y   -0.132292
    5  N  1  Z   -0.000000
    6  N  2  S   -0.008007
    7  N  2  S    0.059684
    8  N  2  X    0.066237
    9  N  2  Y    0.282887
   10  N  2  Z   -0.000000
   11  C  3  S    0.028164
   12  C  3  S   -0.211852
   13  C  3  X    0.640726
   14  C  3  Y   -0.457209
   15  C  3  Z   -0.000000
   16  C  4  S   -0.026253
   17  C  4  S    0.210609
   18  C  4  X   -0.631007
   19  C  4  Y   -0.491958
   20  C  4  Z   -0.000000
   21  C  5  S   -0.050854
   22  C  5  S    0.379462
   23  C  5  X   -0.082834
   24  C  5  Y    0.597689
   25  C  5  Z   -0.000000
   26  C  6  S    0.046548
   27  C  6  S   -0.353133
   28  C  6  X    0.091852
   29  C  6  Y    0.574662
   30  C  6  Z   -0.000000
   31  C  7  S    0.054169
   32  C  7  S   -0.408436
   33  C  7  X   -0.518223
   34  C  7  Y   -0.210319
   35  C  7  Z   -0.000000
   36  C  8  S    0.025209
   37  C  8  S   -0.214709
   38  C  8  X    0.438227
   39  C  8  Y   -0.135296
   40  C  8  Z   -0.000000
   41  C  9  S   -0.052676
   42  C  9  S    0.393906
   43  C  9  X    0.501032
   44  C  9  Y   -0.229221
   45  C  9  Z   -0.000000
   46  C 10  S    0.003217
   47  C 10  S   -0.024913
   48  C 10  X   -0.094979
   49  C 10  Y    0.300756
   50  C 10  Z   -0.000000
   51  H 11  S    0.253847
   52  H 12  S   -0.244383
   53  H 13  S   -0.044241
   54  H 14  S   -0.216333
   55  H 15  S    0.216723
   56  H 16  S   -0.033025
 ...... END OF RHF CALCULATION ......
 STEP CPU TIME =    17.58 TOTAL CPU TIME =         17.7 (      0.3 MIN)
 TOTAL WALL CLOCK TIME=         18.1 SECONDS, CPU UTILIZATION IS    98.07%

     ---------------------------------------------------------------------
     PROPERTIES FOR THE B3LYP    DFT FUNCTIONAL (RHF  TYPE) DENSITY MATRIX
     ---------------------------------------------------------------------

          -----------------
          ENERGY COMPONENTS
          -----------------

         WAVEFUNCTION NORMALIZATION =       1.0000000000

                ONE ELECTRON ENERGY =   -1485.4471058856
                TWO ELECTRON ENERGY =     605.5262165572
           NUCLEAR REPULSION ENERGY =     467.4650318444
                                      ------------------
                       TOTAL ENERGY =    -412.4558574840

 ELECTRON-ELECTRON POTENTIAL ENERGY =     605.5262165572
  NUCLEUS-ELECTRON POTENTIAL ENERGY =   -1891.4812922127
   NUCLEUS-NUCLEUS POTENTIAL ENERGY =     467.4650318444
                                      ------------------
             TOTAL POTENTIAL ENERGY =    -818.4900438110
               TOTAL KINETIC ENERGY =     406.0341863271
                 VIRIAL RATIO (V/T) =       2.0158155923

          ---------------------------------------
          MULLIKEN AND LOWDIN POPULATION ANALYSES
          ---------------------------------------

[...]
              2  N  1  S      1.65604     1.49834
              3  N  1  X      1.00283     1.05329
              4  N  1  Y      1.52780     1.56123
              5  N  1  Z      1.05097     1.05079
              6  N  2  S      1.99541     1.99364
              7  N  2  S      1.66582     1.50671
              8  N  2  X      1.39714     1.43314
              9  N  2  Y      1.12542     1.17271
             10  N  2  Z      1.04879     1.04780
             11  C  3  S      1.99039     1.98529
             12  C  3  S      1.10490     1.00902
             13  C  3  X      0.96025     1.01048
             14  C  3  Y      0.96465     1.01855
             15  C  3  Z      0.99844     0.99773
             16  C  4  S      1.99060     1.98509
             17  C  4  S      1.07762     0.99900
             18  C  4  X      0.91241     0.97007
             19  C  4  Y      0.93684     0.98851
             20  C  4  Z      1.00498     1.00249
             21  C  5  S      1.99073     1.98538
             22  C  5  S      1.15081     1.03520
             23  C  5  X      0.94302     0.99977
             24  C  5  Y      0.99196     1.02105
             25  C  5  Z      0.99136     0.99240
             26  C  6  S      1.99075     1.98553
             27  C  6  S      1.15017     1.03629
             28  C  6  X      0.94370     1.00347
             29  C  6  Y      1.00145     1.02957
             30  C  6  Z      0.97810     0.98020
             31  C  7  S      1.99071     1.98549
             32  C  7  S      1.14811     1.03006
             33  C  7  X      0.98674     1.02145
             34  C  7  Y      0.96476     1.01419
             35  C  7  Z      0.98406     0.98400
             36  C  8  S      1.99102     1.98540
             37  C  8  S      1.13363     1.03671
             38  C  8  X      0.88847     0.95464
             39  C  8  Y      0.99895     1.02507
             40  C  8  Z      0.96517     0.96580
             41  C  9  S      1.99073     1.98547
             42  C  9  S      1.15104     1.03277
             43  C  9  X      0.98673     1.02124
             44  C  9  Y      0.96285     1.01178
             45  C  9  Z      0.98115     0.98099
             46  C 10  S      1.99124     1.98512
             47  C 10  S      1.10695     1.03198
             48  C 10  X      0.95053     0.99049
             49  C 10  Y      0.86203     0.92961
             50  C 10  Z      0.99699     0.99779
             51  H 11  S      0.91045     0.94947
             52  H 12  S      0.90127     0.94210
             53  H 13  S      0.90315     0.94875
             54  H 14  S      0.90947     0.94864
             55  H 15  S      0.90859     0.94808
             56  H 16  S      0.89649     0.94662

          ----- MULLIKEN ATOMIC OVERLAP POPULATIONS -----
          (OFF-DIAGONAL ELEMENTS NEED TO BE MULTIPLIED BY 2)

             1           2           3           4           5

    1    6.5148455
    2   -0.0214378   6.5115334
    3   -0.0244207  -0.0225222   4.7950232
    4    0.4123357  -0.0100556   0.4642265   4.7391694
    5    0.0006405   0.0005519   0.4791228  -0.0276722   4.8010194
    6   -0.0367268  -0.0000213  -0.0402685   0.4836370  -0.0124849
    7    0.0000090  -0.0000051  -0.0294389  -0.0100630   0.5212870
    8   -0.0117631   0.4374874   0.4777678  -0.0353371  -0.0281452
    9    0.0006454   0.0000004  -0.0111261  -0.0273092  -0.0311309
   10    0.4342704   0.4035499  -0.0180050  -0.0475498   0.0000712
   11   -0.0000133   0.0000096  -0.0247292   0.0013047   0.3911422
   12   -0.0016875  -0.0000000   0.0016199  -0.0258495   0.0000512
   13   -0.0000563  -0.0326412  -0.0299977   0.0014956  -0.0031620
   14    0.0000004   0.0000001   0.0014564   0.0000323  -0.0249482
   15   -0.0000120  -0.0000000   0.0000196   0.0014029   0.0015322
   16   -0.0336253  -0.0338657  -0.0000925   0.0026776   0.0000027

             6           7           8           9          10

    6    4.8115363
    7   -0.0297898   4.7912600
    8    0.0012824   0.0009120   4.7937248
    9    0.5186925   0.4878400   0.0000409   4.7910107
   10    0.0019860   0.0000009  -0.0487233  -0.0000242   4.7853739
   11    0.0000161  -0.0256521  -0.0035610   0.0015321  -0.0000016
   12    0.3898759   0.0014764  -0.0000306  -0.0246471   0.0000338
   13   -0.0000312   0.0000040   0.3908181  -0.0000009   0.0029096
   14    0.0014901   0.3921775  -0.0000176  -0.0254876  -0.0000000
   15   -0.0249876  -0.0256325   0.0000008   0.3924545   0.0000003
   16   -0.0000238  -0.0000000   0.0027789   0.0000003   0.3938431

            11          12          13          14          15

   11    0.5732131
   12    0.0000022   0.5644491
   13    0.0010537   0.0000007   0.5728068
   14   -0.0038249  -0.0000340  -0.0000009   0.5724084
   15   -0.0000381  -0.0039808  -0.0000000  -0.0037848   0.5716136
   16   -0.0000000  -0.0000052  -0.0000449   0.0000000  -0.0000000

            16

   16    0.5648434

          TOTAL MULLIKEN AND LOWDIN ATOMIC POPULATIONS
       ATOM         MULL.POP.    CHARGE          LOW.POP.     CHARGE
    1 N             7.233004   -0.233004         7.157200   -0.157200
    2 N             7.232584   -0.232584         7.154003   -0.154003
    3 C             6.018635   -0.018635         6.021075   -0.021075
    4 C             5.922445    0.077555         5.945154    0.054846
    5 C             6.067878   -0.067878         6.033803   -0.033803
    6 C             6.064182   -0.064182         6.035060   -0.035060
    7 C             6.074385   -0.074385         6.035190   -0.035190
    8 C             5.977235    0.022765         5.967625    0.032375
    9 C             6.072491   -0.072491         6.032239   -0.032239
   10 C             5.907735    0.092265         5.934998    0.065002
   11 H             0.910454    0.089546         0.949466    0.050534
   12 H             0.901274    0.098726         0.942101    0.057899
   13 H             0.903153    0.096847         0.948749    0.051251
   14 H             0.909467    0.090533         0.948638    0.051362
   15 H             0.908588    0.091412         0.948077    0.051923
   16 H             0.896488    0.103512         0.946620    0.053380

          -------------------------------
          BOND ORDER AND VALENCE ANALYSIS     BOND ORDER THRESHOLD=0.050
          -------------------------------

                   BOND                       BOND                       BOND
  ATOM PAIR DIST  ORDER      ATOM PAIR DIST  ORDER      ATOM PAIR DIST  ORDER
    1   4  1.341  1.291        1   8  2.713  0.129        1  10  1.343  1.488
    2   4  2.744  0.065        2   8  1.346  1.494        2  10  1.340  1.332
    3   4  1.400  1.220        3   5  1.409  1.275        3   8  1.388  1.291
    3   9  2.779  0.061        3  10  2.694  0.065        4   6  1.390  1.273
    4   7  2.827  0.059        5   6  2.775  0.133        5   7  1.392  1.527
    5  11  1.087  0.961        6   9  1.400  1.521        6  12  1.088  0.960
    7   9  1.391  1.341        7  14  1.087  0.962        8  13  1.086  0.948
    9  15  1.087  0.962       10  16  1.085  0.940

                       TOTAL       BONDED        FREE
      ATOM            VALENCE     VALENCE     VALENCE
    1 N                 3.057       3.057       0.000
    2 N                 3.056       3.056       0.000
    3 C                 3.988       3.988      -0.000
    4 C                 3.972       3.972      -0.000
    5 C                 3.971       3.971       0.000
    6 C                 3.970       3.970      -0.000
    7 C                 3.973       3.973      -0.000
    8 C                 3.950       3.950      -0.000
    9 C                 3.972       3.972       0.000
   10 C                 3.936       3.936       0.000
   11 H                 0.992       0.992       0.000
   12 H                 0.990       0.990       0.000
   13 H                 0.991       0.991       0.000
   14 H                 0.992       0.992      -0.000
   15 H                 0.992       0.992       0.000
   16 H                 0.989       0.989      -0.000

          ---------------------
          ELECTROSTATIC MOMENTS
          ---------------------

 POINT   1           X           Y           Z (BOHR)    CHARGE
                 0.034926    0.000465    0.000000       -0.00 (A.U.)
         DX          DY          DZ         /D/  (DEBYE)
    -2.564238   -0.983483    0.000000    2.746371
 ...... END OF PROPERTY EVALUATION ......
 STEP CPU TIME =     0.01 TOTAL CPU TIME =         17.8 (      0.3 MIN)
 TOTAL WALL CLOCK TIME=         18.1 SECONDS, CPU UTILIZATION IS    98.07%

 -----------------------------------------------------------------------
                    TDDFT CALCULATION FOR SCFTYP=RHF 
                          CODED BY MAHITO CHIBA
 NATIONAL INSTITUTE OF ADVANCED INDUSTRIAL SCIENCE AND TECHNOLOGY, JAPAN
 -----------------------------------------------------------------------
  
 -TDDFT RUNTIME PARAMETERS-
    TRIPLET  = F
    NONEQ    = T
    NSTATE   =                    6
    IROOT    =                    1
    NTRIAL   =                    5
    MAXVEC   =                   50
    ILENG    =                  200
    MAXGRD   =                70859
    NRAD     =                   48
    NLEB     =                  110
 GAS PHASE COMPUTATION
  
 FOR AN EULER-MACLAURIN QUADRATURE USING  48 RADIAL POINTS:
 SMALLEST GAUSSIAN PRIMITIVE EXPONENT=        0.1688554040 OF TYPE -S-
 ON ATOM NUMBER  11 HAS RADIAL NORMALIZATION=  1.000000
  LARGEST GAUSSIAN PRIMITIVE EXPONENT=       99.1061689555 OF TYPE -S-
 ON ATOM NUMBER   1 HAS RADIAL NORMALIZATION=  1.000000
  
 MEM1  =     1257394 MEM2  =       11204 MEMGRID=      699663
 MEMPCM=           0 MEMEFP=           0
 TOTAL MEMORY REQUIRED FOR TD-DFT ITERATIONS IS     1968262 WORDS.

 INITIAL VECTORS / MXVEC                     6 /                  300
 ITERATION #                     1
    CURRENT VECTORS    1 TO   6 (   6 VECTORS)
    STATE NUMBER   1  ENERGY =    3.293060 EV
    STATE NUMBER   2  ENERGY =    4.594759 EV
    STATE NUMBER   3  ENERGY =    4.998216 EV
    STATE NUMBER   4  ENERGY =    5.398415 EV
    STATE NUMBER   5  ENERGY =    6.246457 EV
    STATE NUMBER   6  ENERGY =    8.164446 EV
    MAX ERROR =  1.025E-01 / 1.000E-07
 ITERATION #                     2
    CURRENT VECTORS    7 TO  18 (  12 VECTORS)
    STATE NUMBER   1  ENERGY =    3.225721 EV
    STATE NUMBER   2  ENERGY =    4.536949 EV
    STATE NUMBER   3  ENERGY =    4.922664 EV
    STATE NUMBER   4  ENERGY =    5.118540 EV
    STATE NUMBER   5  ENERGY =    5.312724 EV
    STATE NUMBER   6  ENERGY =    6.774341 EV
    MAX ERROR =  6.458E-03 / 1.000E-07
 ITERATION #                     3
    CURRENT VECTORS   19 TO  30 (  12 VECTORS)
    STATE NUMBER   1  ENERGY =    3.224826 EV
    STATE NUMBER   2  ENERGY =    4.534954 EV
    STATE NUMBER   3  ENERGY =    4.919782 EV
    STATE NUMBER   4  ENERGY =    5.041269 EV
    STATE NUMBER   5  ENERGY =    5.305756 EV
    STATE NUMBER   6  ENERGY =    6.050961 EV
    MAX ERROR =  3.035E-04 / 1.000E-07
 ITERATION #                     4
    CURRENT VECTORS   31 TO  42 (  12 VECTORS)
    STATE NUMBER   1  ENERGY =    3.224815 EV
    STATE NUMBER   2  ENERGY =    4.534906 EV
    STATE NUMBER   3  ENERGY =    4.919726 EV
    STATE NUMBER   4  ENERGY =    5.036990 EV
    STATE NUMBER   5  ENERGY =    5.304471 EV
    STATE NUMBER   6  ENERGY =    6.040242 EV
    MAX ERROR =  7.401E-05 / 1.000E-07
 ITERATION #                     5
    CURRENT VECTORS   43 TO  52 (  10 VECTORS)
    STATE NUMBER   1  ENERGY =    3.224815 EV
    STATE NUMBER   2  ENERGY =    4.534904 EV
    STATE NUMBER   3  ENERGY =    4.919724 EV
    STATE NUMBER   4  ENERGY =    5.036086 EV
    STATE NUMBER   5  ENERGY =    5.304405 EV
    STATE NUMBER   6  ENERGY =    6.040088 EV
    MAX ERROR =  5.040E-06 / 1.000E-07
 ITERATION #                     6
    CURRENT VECTORS   53 TO  58 (   6 VECTORS)
    STATE NUMBER   1  ENERGY =    3.224815 EV
    STATE NUMBER   2  ENERGY =    4.534904 EV
    STATE NUMBER   3  ENERGY =    4.919724 EV
    STATE NUMBER   4  ENERGY =    5.036017 EV
    STATE NUMBER   5  ENERGY =    5.304402 EV
    STATE NUMBER   6  ENERGY =    6.040084 EV
    MAX ERROR =  3.353E-07 / 1.000E-07
 ITERATION #                     7
    CURRENT VECTORS   59 TO  60 (   2 VECTORS)
    STATE NUMBER   1  ENERGY =    3.224815 EV
    STATE NUMBER   2  ENERGY =    4.534904 EV
    STATE NUMBER   3  ENERGY =    4.919724 EV
    STATE NUMBER   4  ENERGY =    5.036013 EV
    STATE NUMBER   5  ENERGY =    5.304402 EV
    STATE NUMBER   6  ENERGY =    6.040084 EV
    MAX ERROR =  3.780E-08 / 1.000E-07
  
   ---------------------------------  
     R-TDDFT CALCULATION CONVERGED
   ---------------------------------  
 NUMBER OF USED VECTORS / MAX =  60 / 300
 NUMBER OF ITERATIONS   / MAX =   7 / 100
 NUMBER OF SINGLE EXCITATIONS =   748
 NUMBER OF ATOMIC ORBITALS    =  56
 NUMBER OF ELECTRONS          =          67.9985995

          -------------------
          SINGLET EXCITATIONS
          -------------------

 STATE #   1  ENERGY =    3.224815 EV
 OSCILLATOR STRENGTH =    0.002764
 LAMBDA DIAGNOSTIC   =    0.438 (RYDBERG/CHARGE TRANSFER CHARACTER)
 SYMMETRY OF STATE   =    A   
                 EXCITATION  DE-EXCITATION
     OCC     VIR  AMPLITUDE      AMPLITUDE
      I       A     X(I->A)        Y(A->I)
     ---     ---   --------       --------
     34      35    0.995293      -0.033938
     34      37    0.098502      -0.018008

 STATE #   2  ENERGY =    4.534904 EV
 OSCILLATOR STRENGTH =    0.000859
 LAMBDA DIAGNOSTIC   =    0.370 (RYDBERG/CHARGE TRANSFER CHARACTER)
 SYMMETRY OF STATE   =    A   
                 EXCITATION  DE-EXCITATION
     OCC     VIR  AMPLITUDE      AMPLITUDE
      I       A     X(I->A)        Y(A->I)
     ---     ---   --------       --------
     34      36    0.994412      -0.015236
     34      38    0.098331      -0.012430

 STATE #   3  ENERGY =    4.919724 EV
 OSCILLATOR STRENGTH =    0.000584
 LAMBDA DIAGNOSTIC   =    0.465 (RYDBERG/CHARGE TRANSFER CHARACTER)
 SYMMETRY OF STATE   =    A   
                 EXCITATION  DE-EXCITATION
     OCC     VIR  AMPLITUDE      AMPLITUDE
      I       A     X(I->A)        Y(A->I)
     ---     ---   --------       --------
     32      35   -0.993938       0.027451
     32      36    0.030867       0.007074
     32      37   -0.077430       0.015566
     34      37    0.052870       0.008693
     34      38    0.040441      -0.017533

 STATE #   4  ENERGY =    5.036013 EV
 OSCILLATOR STRENGTH =    0.068836
 LAMBDA DIAGNOSTIC   =    0.910 (RYDBERG/CHARGE TRANSFER CHARACTER)
 SYMMETRY OF STATE   =    A   
                 EXCITATION  DE-EXCITATION
     OCC     VIR  AMPLITUDE      AMPLITUDE
      I       A     X(I->A)        Y(A->I)
     ---     ---   --------       --------
     30      35   -0.097228      -0.012958
     31      35   -0.073154      -0.002834
     33      35    0.964987      -0.094796
     25      36   -0.040010      -0.016732
     31      36    0.150845       0.030176
     33      36    0.070965       0.004263
     30      37   -0.119748      -0.046309
     31      37    0.037887       0.010521
     33      37    0.120405       0.021434
     29      38    0.032980       0.020115
     31      39    0.030912       0.014997

 STATE #   5  ENERGY =    5.304402 EV
 OSCILLATOR STRENGTH =    0.001901
 LAMBDA DIAGNOSTIC   =    0.609 (RYDBERG/CHARGE TRANSFER CHARACTER)
 SYMMETRY OF STATE   =    A   
                 EXCITATION  DE-EXCITATION
     OCC     VIR  AMPLITUDE      AMPLITUDE
      I       A     X(I->A)        Y(A->I)
     ---     ---   --------       --------
     29      35    0.032665       0.004206
     31      35   -0.727051      -0.007278
     33      35   -0.103028       0.013335
     30      36    0.037873       0.007600
     33      36    0.672882       0.019111
     33      37   -0.041974      -0.006293

 STATE #   6  ENERGY =    6.040084 EV
 OSCILLATOR STRENGTH =    0.000863
 LAMBDA DIAGNOSTIC   =    0.393 (RYDBERG/CHARGE TRANSFER CHARACTER)
 SYMMETRY OF STATE   =    A   
                 EXCITATION  DE-EXCITATION
     OCC     VIR  AMPLITUDE      AMPLITUDE
      I       A     X(I->A)        Y(A->I)
     ---     ---   --------       --------
     27      35   -0.031363      -0.002118
     32      35   -0.054308       0.010929
     34      35    0.093382       0.013043
     32      36   -0.158814       0.000444
     32      37   -0.044140       0.008606
     34      37   -0.978386       0.010352

                          SUMMARY OF TDDFT RESULTS

   STATE             ENERGY     EXCITATION  TRANSITION DIPOLE, A.U.  OSCILLATOR
   0 ->             HARTREE          EV         X       Y       Z     STRENGTH
   0  A         -412.4558574840    0.000
   1  A         -412.3373477153    3.225     0.0000  0.0000 -0.1870    0.0028
   2  A         -412.2892028084    4.535     0.0000 -0.0000 -0.0879    0.0009
   3  A         -412.2750609365    4.920     0.0000  0.0000  0.0696    0.0006
   4  A         -412.2707873978    5.036    -0.0075  0.7469 -0.0000    0.0688
   5  A         -412.2609243043    5.304    -0.1045 -0.0609  0.0000    0.0019
   6  A         -412.2338884860    6.040     0.0000  0.0000  0.0764    0.0009
  
 TRANSITION        EXCITATION            TRANSITION DIPOLE, A.U.     OSCILLATOR
                       EV              X       Y       Z       DIP    STRENGTH

  1  ->  2           1.310         -0.1067 -0.2116  0.0000   0.2370    0.0018
  1  ->  3           1.695         -0.9470  1.7364 -0.0000   1.9778    0.1624
  1  ->  4           1.811          0.0000  0.0000  0.0743   0.0743    0.0002
  1  ->  5           2.080         -0.0000 -0.0000 -0.0480   0.0480    0.0001
  1  ->  6           2.815         -2.1698 -0.0254  0.0000   2.1699    0.3248
  2  ->  3           0.385          0.0880 -0.0306  0.0000   0.0931    0.0001
  2  ->  4           0.501         -0.0000 -0.0000  0.0166   0.0166    0.0000
  2  ->  5           0.769          0.0000 -0.0000  0.0678   0.0678    0.0001
  2  ->  6           1.505          0.1101  0.2411 -0.0000   0.2650    0.0026
  3  ->  4           0.116         -0.0000 -0.0000 -0.0062   0.0062    0.0000
  3  ->  5           0.385         -0.0000 -0.0000 -0.0049   0.0049    0.0000
  3  ->  6           1.120          0.1669  0.0350  0.0000   0.1705    0.0008
  4  ->  5           0.268         -0.4471  0.1272  0.0000   0.4648    0.0014
  4  ->  6           1.004          0.0000  0.0000  0.0100   0.0100    0.0000
  5  ->  6           0.736         -0.0000 -0.0000 -0.0066   0.0066    0.0000

 SELECTING EXCITED STATE IROOT=   1 AT E=     -412.3373477153
 AS THE STATE OF INTEREST.

 ..... DONE WITH TD-DFT EXCITATION ENERGIES .....
 STEP CPU TIME =    42.97 TOTAL CPU TIME =         60.7 (      1.0 MIN)
 TOTAL WALL CLOCK TIME=         62.2 SECONDS, CPU UTILIZATION IS    97.65%
              1975402  WORDS OF DYNAMIC MEMORY USED
 EXECUTION OF GAMESS TERMINATED NORMALLY Sat Mar 21 11:39:41 2020
 DDI: 263640 bytes (0.3 MB / 0 MWords) used by master data server.

 ----------------------------------------
 CPU timing information for all processes
 ========================================
 0: 60.321 + 0.403 = 60.724
 1: 0.02 + 0.03 = 0.06
 ----------------------------------------
 ddikick.x: exited gracefully.
unset echo
----- accounting info -----
Files used on the master node Vusals-MacBook-Pro.local were:
-rw-r--r--@ 1 wurthel  staff      977 Mar 21 11:38 .//TDDFT.F05
-rw-r--r--  1 wurthel  staff  7380656 Mar 21 11:38 .//TDDFT.F08
-rw-r--r--  1 wurthel  staff  1668720 Mar 21 11:39 .//TDDFT.F10
-rw-r--r--  1 wurthel  staff  2834400 Mar 21 11:38 .//TDDFT.F22
-rw-r--r--  1 wurthel  staff    53833 Mar 21 11:38 .//TDDFT.dat
-rw-r--r--@ 1 wurthel  staff      977 Mar 21 11:38 .//TDDFT.inp
-rw-r--r--  1 wurthel  staff   108343 Mar 21 11:39 .//TDDFT.log
ls: No match.
ls: No match.
ls: No match.
Sat Mar 21 11:39:44 MSK 2020
60.390u 0.476s 1:05.52 92.8%	0+0k 0+0io 591pf+0w
