----- GAMESS execution script 'rungms' -----
This job is running on host Vusals-MacBook-Pro.local
under operating system Darwin at Tue Mar 3 11:33:59 MSK 2020
Available scratch disk space (Kbyte units) at beginning of the job is
Filesystem   1024-blocks     Used Available Capacity iused               ifree %iused  Mounted on
/dev/disk1s5   118181844 43529164  72338832    38%  993235 9223372036853782572    0%   /
GAMESS temporary binary files will be written to ./
GAMESS supplementary output files will be written to ./
Copying input file Propanol_STO-3G.inp to your run's scratch directory...
cp Propanol_STO-3G.inp .//Propanol_STO-3G.F05
unset echo
.//ddikick.x .//gamess.30Sep2018R3.x Propanol_STO-3G -ddi 1 1 Vusals-MacBook-Pro.local -scr ./

 Distributed Data Interface kickoff program.
 Initiating 1 compute processes on 1 nodes to run the following command:
 .//gamess.30Sep2018R3.x Propanol_STO-3G 

          ******************************************************
          *         GAMESS VERSION = 30 SEP 2018 (R3)         *
          *             FROM IOWA STATE UNIVERSITY             *
          * M.W.SCHMIDT, K.K.BALDRIDGE, J.A.BOATZ, S.T.ELBERT, *
          *   M.S.GORDON, J.H.JENSEN, S.KOSEKI, N.MATSUNAGA,   *
          *          K.A.NGUYEN, S.J.SU, T.L.WINDUS,           *
          *       TOGETHER WITH M.DUPUIS, J.A.MONTGOMERY       *
          *         J.COMPUT.CHEM.  14, 1347-1363(1993)        *
          **************** 64 BIT APPLE VERSION ****************

  SINCE 1993, STUDENTS AND POSTDOCS WORKING AT IOWA STATE UNIVERSITY
  AND ALSO IN THEIR VARIOUS JOBS AFTER LEAVING ISU HAVE MADE IMPORTANT
  CONTRIBUTIONS TO THE CODE:
     IVANA ADAMOVIC, CHRISTINE AIKENS, YURI ALEXEEV, POOJA ARORA,
     ANDREY ASADCHEV, ROB BELL, PRADIPTA BANDYOPADHYAY, JONATHAN BENTZ,
     BRETT BODE, KURT BRORSEN, CALEB CARLIN, GALINA CHABAN, WEI CHEN,
     CHEOL HO CHOI, PAUL DAY, ALBERT DEFUSCO, NUWAN DESILVA, TIM DUDLEY,
     DMITRI FEDOROV, ALEX FINDLATER, GRAHAM FLETCHER, MARK FREITAG,
     KURT GLAESEMANN, ANASTASIA GUNINA,
     DAN KEMP, GRANT MERRILL, NORIYUKI MINEZAWA, JONATHAN MULLIN,
     TAKESHI NAGATA, SEAN NEDD, HEATHER NETZLOFF, BOSILJKA NJEGIC, RYAN OLSON,
     MIKE PAK, BUU PHAM,
     SPENCER PRUITT, LUKE ROSKOP, JIM SHOEMAKER, LYUDMILA SLIPCHENKO,
     TONY SMITH, SAROM SOK LEANG, JIE SONG, TETSUYA TAKETSUGU, SIMON WEBB,
     PENG XU, SOOHAENG YOO, FEDERICO ZAHARIEV

  ADDITIONAL CODE HAS BEEN PROVIDED BY COLLABORATORS IN OTHER GROUPS:
     IOWA STATE UNIVERSITY:
          JOE IVANIC, AARON WEST, LAIMUTIS BYTAUTAS, KLAUS RUEDENBERG
     UNIVERSITY OF TOKYO: KIMIHIKO HIRAO, TAKAHITO NAKAJIMA,
          TAKAO TSUNEDA, MUNEAKI KAMIYA, SUSUMU YANAGISAWA,
          KIYOSHI YAGI, MAHITO CHIBA, SEIKEN TOKURA, NAOAKI KAWAKAMI
     UNIVERSITY OF AARHUS: FRANK JENSEN
     UNIVERSITY OF IOWA: VISVALDAS KAIRYS, HUI LI
     NATIONAL INST. OF STANDARDS AND TECHNOLOGY: WALT STEVENS, DAVID GARMER
     UNIVERSITY OF PISA: BENEDETTA MENNUCCI, JACOPO TOMASI
     UNIVERSITY OF MEMPHIS: HENRY KURTZ, PRAKASHAN KORAMBATH
     UNIVERSITY OF ALBERTA: TOBY ZENG, MARIUSZ KLOBUKOWSKI
     UNIVERSITY OF NEW ENGLAND: MARK SPACKMAN
     MIE UNIVERSITY: HIROAKI UMEDA
     NAT. INST. OF ADVANCED INDUSTRIAL SCIENCE AND TECHNOLOGY: KAZUO KITAURA
     MICHIGAN STATE UNIVERSITY:
          KAROL KOWALSKI, MARTA WLOCH, JEFFREY GOUR, JESSE LUTZ,
          WEI LI, JUN SHEN, J. EMILIANO DEUSTUA, PIOTR PIECUCH
     UNIVERSITY OF MINNESOTA:
          YINAN SHU
     UNIVERSITY OF SILESIA: MONIKA MUSIAL, STANISLAW KUCHARSKI
     FACULTES UNIVERSITAIRES NOTRE-DAME DE LA PAIX:
          OLIVIER QUINET, BENOIT CHAMPAGNE
     UNIVERSITY OF CALIFORNIA - SANTA BARBARA: BERNARD KIRTMAN
     INSTITUTE FOR MOLECULAR SCIENCE:
          KAZUYA ISHIMURA, MICHIO KATOUDA, AND SHIGERU NAGASE
     UNIVERSITY OF NOTRE DAME: ANNA POMOGAEVA, DAN CHIPMAN
     KYUSHU UNIVERSITY:
          HARUYUKI NAKANO,
          FENG LONG GU, JACEK KORCHOWIEC, MARCIN MAKOWSKI, AND YURIKO AOKI,
          HIROTOSHI MORI AND EISAKU MIYOSHI
     PENNSYLVANIA STATE UNIVERSITY:
          TZVETELIN IORDANOV, CHET SWALINA, JONATHAN SKONE,
          SHARON HAMMES-SCHIFFER
     WASEDA UNIVERSITY:
          MASATO KOBAYASHI, TOMOKO AKAMA, TSUGUKI TOUMA,
          TAKESHI YOSHIKAWA, YASUHIRO IKABATA, JUNJI SEINO,
          YUYA NAKAJIMA, HIROMI NAKAI
     NANJING UNIVERSITY: SHUHUA LI
     UNIVERSITY OF NEBRASKA:
          PEIFENG SU, DEJUN SI, NANDUN THELLAMUREGE, YALI WANG, HUI LI
     UNIVERSITY OF ZURICH: ROBERTO PEVERATI, KIM BALDRIDGE
     N. COPERNICUS UNIVERSITY AND JACKSON STATE UNIVERSITY:
          MARIA BARYSZ
     UNIVERSITY OF COPENHAGEN: Jimmy Kromann, CASPER STEINMANN
     TOKYO INSTITUTE OF TECHNOLOGY: HIROYA NAKATA
     NAGOYA UNIVERSITY: YOSHIO NISHIMOTO, STEPHAN IRLE
     MOSCOW STATE UNIVERSITY: VLADIMIR MIRONOV

 EXECUTION OF GAMESS BEGUN Tue Mar  3 11:33:59 2020

            ECHO OF THE FIRST FEW INPUT CARDS -
 INPUT CARD>!   File created by the GAMESS Input Deck Generator Plugin for Avogadro         
 INPUT CARD> $BASIS GBASIS=STO NGAUSS=3 $END                                                
 INPUT CARD> $CONTRL SCFTYP=RHF RUNTYP=OPTIMIZE $END                                        
 INPUT CARD> $STATPT OPTTOL=0.0001 NSTEP=20 $END                                            
 INPUT CARD>                                                                                
 INPUT CARD> $DATA                                                                          
 INPUT CARD>Title                                                                           
 INPUT CARD>C1                                                                              
 INPUT CARD>O     8.0     1.84841    -0.14811    -0.00225                                   
 INPUT CARD>C     6.0    -0.53319    -0.51105     0.00521                                   
 INPUT CARD>C     6.0     0.59119     0.51472     0.00524                                   
 INPUT CARD>C     6.0    -1.89971     0.14997    -0.00466                                   
 INPUT CARD>H     1.0    -0.43063    -1.16847    -0.86639                                   
 INPUT CARD>H     1.0    -0.44132    -1.15991     0.88438                                   
 INPUT CARD>H     1.0     0.53968     1.14963    -0.88473                                   
 INPUT CARD>H     1.0     0.54365     1.15887     0.88919                                   
 INPUT CARD>H     1.0    -2.02781     0.77274    -0.89576                                   
 INPUT CARD>H     1.0    -2.68837    -0.60890    -0.00453                                   
 INPUT CARD>H     1.0    -2.03606     0.78174     0.87886                                   
 INPUT CARD>H     1.0     1.89475    -0.69722     0.79895                                   
 INPUT CARD> $END                                                                           
    1000000 WORDS OF MEMORY AVAILABLE

     BASIS OPTIONS
     -------------
     GBASIS=STO          IGAUSS=       3      POLAR=NONE    
     NDFUNC=       0     NFFUNC=       0     DIFFSP=       F
     NPFUNC=       0      DIFFS=       F     BASNAM=        


     RUN TITLE
     ---------
 Title                                                                           

 THE POINT GROUP OF THE MOLECULE IS C1      
 THE ORDER OF THE PRINCIPAL AXIS IS     0

 ATOM      ATOMIC                      COORDINATES (BOHR)
           CHARGE         X                   Y                   Z
 O           8.0     3.4929884130       -0.2798873160       -0.0042518835
 C           6.0    -1.0075829994       -0.9657444660        0.0098454724
 C           6.0     1.1171871067        0.9726797604        0.0099021642
 C           6.0    -3.5899313561        0.2834022064       -0.0088061231
 H           1.0    -0.8137727021       -2.2080881249       -1.6372396985
 H           1.0    -0.8339738729       -2.1919120704        1.6712358690
 H           1.0     1.0198473211        2.1724856873       -1.6718972731
 H           1.0     1.0273495332        2.1899467554        1.6803254510
 H           1.0    -3.8320052552        1.4602668598       -1.6927409508
 H           1.0    -5.0802826536       -1.1506541539       -0.0085604587
 H           1.0    -3.8475954946        1.4772743936        1.6608045816
 H           1.0     3.5805583152       -1.3175547532        1.5097965779

          INTERNUCLEAR DISTANCES (ANGS.)
          ------------------------------

                1 O          2 C          3 C          4 C          5 H     

   1 O       0.0000000    2.4091076 *  1.4212677 *  3.7599549    2.6423277 *
   2 C       2.4091076 *  0.0000000    1.5219837 *  1.5180322 *  1.0965428 *
   3 C       1.4212677 *  1.5219837 *  0.0000000    2.5174835 *  2.1533656 *
   4 C       3.7599549    1.5180322 *  2.5174835 *  0.0000000    2.1538474 *
   5 H       2.6423277 *  1.0965428 *  2.1533656 *  2.1538474 *  0.0000000  
   6 H       2.6556949 *  1.0965397 *  2.1548433 *  2.1524589 *  1.7508236 *
   7 H       2.0434467 *  2.1681562 *  1.0944453 *  2.7792925 *  2.5130510 *
   8 H       2.0506732 *  2.1747731 *  1.0947862 *  2.7904937 *  3.0737264  
   9 H       4.0830634    2.1665070 *  2.7816427 *  1.0946741 *  2.5139894 *
  10 H       4.5601212    2.1574221 *  3.4667176    1.0944717 *  2.4805869 *
  11 H       4.0902424    2.1663768 *  2.7815381 *  1.0946836 *  3.0702805  
  12 H       0.9724148 *  2.5611667 *  1.9488568 *  3.9700688    2.8987628 *

                6 H          7 H          8 H          9 H         10 H     

   1 O       2.6556949 *  2.0434467 *  2.0506732 *  4.0830634    4.5601212  
   2 C       1.0965397 *  2.1681562 *  2.1747731 *  2.1665070 *  2.1574221 *
   3 C       2.1548433 *  1.0944453 *  1.0947862 *  2.7816427 *  3.4667176  
   4 C       2.1524589 *  2.7792925 *  2.7904937 *  1.0946741 *  1.0944717 *
   5 H       1.7508236 *  2.5130510 *  3.0737264    2.5139894 *  2.4805869 *
   6 H       0.0000000    3.0701932    2.5193114 *  3.0693623    2.4785090 *
   7 H       3.0701932    0.0000000    1.7739485 *  2.5950284 *  3.7798792  
   8 H       2.5193114 *  1.7739485 *  0.0000000    3.1539736    3.7907386  
   9 H       3.0693623    2.5950284 *  3.1539736    0.0000000    1.7718802 *
  10 H       2.4785090 *  3.7798792    3.7907386    1.7718802 *  0.0000000  
  11 H       2.5126143 *  3.1432514    2.6071512 *  1.7746620 *  1.7719384 *
  12 H       2.3829820 *  2.8428591 *  2.2975388 *  4.5187721    4.6538553  

               11 H         12 H     

   1 O       4.0902424    0.9724148 *
   2 C       2.1663768 *  2.5611667 *
   3 C       2.7815381 *  1.9488568 *
   4 C       1.0946836 *  3.9700688  
   5 H       3.0702805    2.8987628 *
   6 H       2.5126143 *  2.3829820 *
   7 H       3.1432514    2.8428591 *
   8 H       2.6071512 *  2.2975388 *
   9 H       1.7746620 *  4.5187721  
  10 H       1.7719384 *  4.6538553  
  11 H       0.0000000    4.2005923  
  12 H       4.2005923    0.0000000  

  * ... LESS THAN  3.000


     ATOMIC BASIS SET
     ----------------
 THE CONTRACTED PRIMITIVE FUNCTIONS HAVE BEEN UNNORMALIZED
 THE CONTRACTED BASIS FUNCTIONS ARE NOW NORMALIZED TO UNITY

  SHELL TYPE  PRIMITIVE        EXPONENT          CONTRACTION COEFFICIENT(S)

 O         

      1   S       1           130.7093214    0.154328967295
      1   S       2            23.8088661    0.535328142282
      1   S       3             6.4436083    0.444634542185

      2   L       4             5.0331513   -0.099967229187    0.155916274999
      2   L       5             1.1695961    0.399512826089    0.607683718598
      2   L       6             0.3803890    0.700115468880    0.391957393099

 C         

      3   S       7            71.6168373    0.154328967295
      3   S       8            13.0450963    0.535328142282
      3   S       9             3.5305122    0.444634542185

      4   L      10             2.9412494   -0.099967229187    0.155916274999
      4   L      11             0.6834831    0.399512826089    0.607683718598
      4   L      12             0.2222899    0.700115468880    0.391957393099

 C         

      5   S      13            71.6168373    0.154328967295
      5   S      14            13.0450963    0.535328142282
      5   S      15             3.5305122    0.444634542185

      6   L      16             2.9412494   -0.099967229187    0.155916274999
      6   L      17             0.6834831    0.399512826089    0.607683718598
      6   L      18             0.2222899    0.700115468880    0.391957393099

 C         

      7   S      19            71.6168373    0.154328967295
      7   S      20            13.0450963    0.535328142282
      7   S      21             3.5305122    0.444634542185

      8   L      22             2.9412494   -0.099967229187    0.155916274999
      8   L      23             0.6834831    0.399512826089    0.607683718598
      8   L      24             0.2222899    0.700115468880    0.391957393099

 H         

      9   S      25             3.4252509    0.154328967295
      9   S      26             0.6239137    0.535328142282
      9   S      27             0.1688554    0.444634542185

 H         

     10   S      28             3.4252509    0.154328967295
     10   S      29             0.6239137    0.535328142282
     10   S      30             0.1688554    0.444634542185

 H         

     11   S      31             3.4252509    0.154328967295
     11   S      32             0.6239137    0.535328142282
     11   S      33             0.1688554    0.444634542185

 H         

     12   S      34             3.4252509    0.154328967295
     12   S      35             0.6239137    0.535328142282
     12   S      36             0.1688554    0.444634542185

 H         

     13   S      37             3.4252509    0.154328967295
     13   S      38             0.6239137    0.535328142282
     13   S      39             0.1688554    0.444634542185

 H         

     14   S      40             3.4252509    0.154328967295
     14   S      41             0.6239137    0.535328142282
     14   S      42             0.1688554    0.444634542185

 H         

     15   S      43             3.4252509    0.154328967295
     15   S      44             0.6239137    0.535328142282
     15   S      45             0.1688554    0.444634542185

 H         

     16   S      46             3.4252509    0.154328967295
     16   S      47             0.6239137    0.535328142282
     16   S      48             0.1688554    0.444634542185

 TOTAL NUMBER OF BASIS SET SHELLS             =   16
 NUMBER OF CARTESIAN GAUSSIAN BASIS FUNCTIONS =   28
 NUMBER OF ELECTRONS                          =   34
 CHARGE OF MOLECULE                           =    0
 SPIN MULTIPLICITY                            =    1
 NUMBER OF OCCUPIED ORBITALS (ALPHA)          =   17
 NUMBER OF OCCUPIED ORBITALS (BETA )          =   17
 TOTAL NUMBER OF ATOMS                        =   12
 THE NUCLEAR REPULSION ENERGY IS      130.8107971316

     $CONTRL OPTIONS
     ---------------
 SCFTYP=RHF          RUNTYP=OPTIMIZE     EXETYP=RUN     
 MPLEVL=       0     CITYP =NONE         CCTYP =NONE         VBTYP =NONE    
 DFTTYP=NONE         TDDFT =NONE    
 MULT  =       1     ICHARG=       0     NZVAR =       0     COORD =UNIQUE  
 PP    =NONE         RELWFN=NONE         LOCAL =NONE         NUMGRD=       F
 ISPHER=      -1     NOSYM =       0     MAXIT =      30     UNITS =ANGS    
 PLTORB=       F     MOLPLT=       F     AIMPAC=       F     FRIEND=        
 NPRINT=       7     IREST =       0     GEOM  =INPUT   
 NORMF =       0     NORMP =       0     ITOL  =      20     ICUT  =       9
 INTTYP=BEST         GRDTYP=BEST         QMTTOL= 1.0E-06

     $SYSTEM OPTIONS
     ---------------
  REPLICATED MEMORY=     1000000 WORDS (ON EVERY NODE).
 DISTRIBUTED MEMDDI=           0 MILLION WORDS IN AGGREGATE,
 MEMDDI DISTRIBUTED OVER   1 PROCESSORS IS           0 WORDS/PROCESSOR.
 TOTAL MEMORY REQUESTED ON EACH PROCESSOR=     1000000 WORDS.
 TIMLIM=      525600.00 MINUTES, OR     365.0 DAYS.
 PARALL= F  BALTYP=  DLB     KDIAG=    0  COREFL= F
 MXSEQ2=     300 MXSEQ3=     150  mem10=         0

          ----------------
          PROPERTIES INPUT
          ----------------

     MOMENTS            FIELD           POTENTIAL          DENSITY
 IEMOM =       1   IEFLD =       0   IEPOT =       0   IEDEN =       0
 WHERE =COMASS     WHERE =NUCLEI     WHERE =NUCLEI     WHERE =NUCLEI  
 OUTPUT=BOTH       OUTPUT=BOTH       OUTPUT=BOTH       OUTPUT=BOTH    
 IEMINT=       0   IEFINT=       0                     IEDINT=       0
                                                       MORB  =       0
          EXTRAPOLATION IN EFFECT
          SOSCF IN EFFECT
 ORBITAL PRINTING OPTION: NPREO=     1    28     2     1

     -------------------------------
     INTEGRAL TRANSFORMATION OPTIONS
     -------------------------------
     NWORD  =            0
     CUTOFF = 1.0E-09     MPTRAN =       0
     DIRTRF =       F     AOINTS =DUP     

          ----------------------
          INTEGRAL INPUT OPTIONS
          ----------------------
 NOPK  =       1 NORDER=       0 SCHWRZ=       T

     ------------------------------------------
     THE POINT GROUP IS C1 , NAXIS= 0, ORDER= 1
     ------------------------------------------

     DIMENSIONS OF THE SYMMETRY SUBSPACES ARE
 A   =   28

 ..... DONE SETTING UP THE RUN .....
 STEP CPU TIME =     0.01 TOTAL CPU TIME =          0.0 (      0.0 MIN)
 TOTAL WALL CLOCK TIME=          0.1 SECONDS, CPU UTILIZATION IS    16.67%


          -----------------------------
          STATIONARY POINT LOCATION RUN
          -----------------------------

 OBTAINING INITIAL HESSIAN, HESS=GUESS   
 CARTESIAN COORDINATE OPTIMIZATION USING BADGER'S RULE FORCE CONSTANT GUESS

          PARAMETERS CONTROLLING GEOMETRY SEARCH ARE
          METHOD =QA                  UPHESS =BFGS    
          NNEG   =         0          NFRZ   =         0
          NSTEP  =        20          IFOLOW =         1
          HESS   =GUESS               RESTAR =         F
          IHREP  =         0          HSSEND =         F
          NPRT   =         0          NPUN   =         0
          OPTTOL = 1.000E-04          RMIN   = 1.500E-03
          RMAX   = 1.000E-01          RLIM   = 7.000E-02
          DXMAX  = 3.000E-01          PURIFY =         F
          MOVIE  =         F          TRUPD  =         T
          TRMAX  = 5.000E-01          TRMIN  = 5.000E-02
          ITBMAT =         5          STPT   =         F
          STSTEP = 1.000E-02          PROJCT=          T

 BEGINNING GEOMETRY SEARCH POINT NSERCH=   0 ...

 COORDINATES OF ALL ATOMS ARE (ANGS)
   ATOM   CHARGE       X              Y              Z
 ------------------------------------------------------------
 O           8.0   1.8484100000  -0.1481100000  -0.0022500000
 C           6.0  -0.5331900000  -0.5110500000   0.0052100000
 C           6.0   0.5911900000   0.5147200000   0.0052400000
 C           6.0  -1.8997100000   0.1499700000  -0.0046600000
 H           1.0  -0.4306300000  -1.1684700000  -0.8663900000
 H           1.0  -0.4413200000  -1.1599100000   0.8843800000
 H           1.0   0.5396800000   1.1496300000  -0.8847300000
 H           1.0   0.5436500000   1.1588700000   0.8891900000
 H           1.0  -2.0278100000   0.7727400000  -0.8957600000
 H           1.0  -2.6883700000  -0.6089000000  -0.0045300000
 H           1.0  -2.0360600000   0.7817400000   0.8788600000
 H           1.0   1.8947500000  -0.6972200000   0.7989500000

          ********************
          1 ELECTRON INTEGRALS
          ********************
 ...... END OF ONE-ELECTRON INTEGRALS ......
 STEP CPU TIME =     0.01 TOTAL CPU TIME =          0.0 (      0.0 MIN)
 TOTAL WALL CLOCK TIME=          0.1 SECONDS, CPU UTILIZATION IS    28.57%

          -------------
          GUESS OPTIONS
          -------------
          GUESS =HUCKEL            NORB  =       0          NORDER=       0
          MIX   =       F          PRTMO =       F          PUNMO =       F
          TOLZ  = 1.0E-08          TOLE  = 1.0E-05
          SYMDEN=       F          PURIFY=       F

 INITIAL GUESS ORBITALS GENERATED BY HUCKEL   ROUTINE.
 HUCKEL GUESS REQUIRES     16948 WORDS.

 SYMMETRIES FOR INITIAL GUESS ORBITALS FOLLOW.   BOTH SET(S).
    17 ORBITALS ARE OCCUPIED (    4 CORE ORBITALS).
     5=A        6=A        7=A        8=A        9=A       10=A       11=A   
    12=A       13=A       14=A       15=A       16=A       17=A       18=A   
    19=A       20=A       21=A       22=A       23=A       24=A       25=A   
    26=A       27=A   
 ...... END OF INITIAL ORBITAL SELECTION ......
 STEP CPU TIME =     0.00 TOTAL CPU TIME =          0.0 (      0.0 MIN)
 TOTAL WALL CLOCK TIME=          0.1 SECONDS, CPU UTILIZATION IS    25.00%

                    ----------------------
                    AO INTEGRAL TECHNOLOGY
                    ----------------------
     S,P,L SHELL ROTATED AXIS INTEGRALS, REPROGRAMMED BY
        KAZUYA ISHIMURA (IMS) AND JOSE SIERRA (SYNSTAR).
     S,P,D,L SHELL ROTATED AXIS INTEGRALS PROGRAMMED BY
        KAZUYA ISHIMURA (INSTITUTE FOR MOLECULAR SCIENCE).
     S,P,D,F,G SHELL TO TOTAL QUARTET ANGULAR MOMENTUM SUM 5,
        ERIC PROGRAM BY GRAHAM FLETCHER (ELORET AND NASA ADVANCED
        SUPERCOMPUTING DIVISION, AMES RESEARCH CENTER).
     S,P,D,F,G,L SHELL GENERAL RYS QUADRATURE PROGRAMMED BY
        MICHEL DUPUIS (PACIFIC NORTHWEST NATIONAL LABORATORY).

          --------------------
          2 ELECTRON INTEGRALS
          --------------------

 THE -PK- OPTION IS OFF, THE INTEGRALS ARE NOT IN SUPERMATRIX FORM.
 STORING   15000 INTEGRALS/RECORD ON DISK, USING 12 BYTES/INTEGRAL.
 TWO ELECTRON INTEGRAL EVALUATION REQUIRES   89492 WORDS OF MEMORY.
 SCHWARZ INEQUALITY OVERHEAD:       403 INTEGRALS, T=        0.00
 II,JST,KST,LST =  1  1  1  1 NREC =         1 INTLOC =    1
 II,JST,KST,LST =  2  1  1  1 NREC =         1 INTLOC =    2
 II,JST,KST,LST =  3  1  1  1 NREC =         1 INTLOC =   34
 II,JST,KST,LST =  4  1  1  1 NREC =         1 INTLOC =  117
 II,JST,KST,LST =  5  1  1  1 NREC =         1 INTLOC = 1297
 II,JST,KST,LST =  6  1  1  1 NREC =         1 INTLOC = 1865
 II,JST,KST,LST =  7  1  1  1 NREC =         1 INTLOC = 6711
 II,JST,KST,LST =  8  1  1  1 NREC =         1 INTLOC = 7888
 II,JST,KST,LST =  9  1  1  1 NREC =         2 INTLOC = 4281
 II,JST,KST,LST = 10  1  1  1 NREC =         2 INTLOC = 8715
 II,JST,KST,LST = 11  1  1  1 NREC =         2 INTLOC =13837
 II,JST,KST,LST = 12  1  1  1 NREC =         3 INTLOC = 4703
 II,JST,KST,LST = 13  1  1  1 NREC =         3 INTLOC =11393
 II,JST,KST,LST = 14  1  1  1 NREC =         4 INTLOC = 3868
 II,JST,KST,LST = 15  1  1  1 NREC =         4 INTLOC =11975
 II,JST,KST,LST = 16  1  1  1 NREC =         5 INTLOC = 6418
 SCHWARZ INEQUALITY TEST SKIPPED         656 INTEGRAL BLOCKS.
 TOTAL NUMBER OF NONZERO TWO-ELECTRON INTEGRALS =               77013
          6 INTEGRAL RECORDS WERE STORED ON DISK FILE  8.
  ...... END OF TWO-ELECTRON INTEGRALS .....
 STEP CPU TIME =     0.04 TOTAL CPU TIME =          0.1 (      0.0 MIN)
 TOTAL WALL CLOCK TIME=          0.1 SECONDS, CPU UTILIZATION IS    50.00%

          --------------------------
                 RHF SCF CALCULATION
          --------------------------

     NUCLEAR ENERGY =       130.8107971316
     MAXIT =   30     NPUNCH=    2
     EXTRAP=T  DAMP=F  SHIFT=F  RSTRCT=F  DIIS=F  DEM=F  SOSCF=T
     DENSITY MATRIX CONV=  1.00E-05
     SOSCF WILL OPTIMIZE     187 ORBITAL ROTATIONS, SOGTOL=   0.250
     MEMORY REQUIRED FOR RHF ITERS=     36628 WORDS.

 ITER EX DEM     TOTAL ENERGY        E CHANGE  DENSITY CHANGE     ORB. GRAD
   1  0  0     -190.3947952008  -190.3947952008   0.575847506   0.000000000
          ---------------START SECOND ORDER SCF---------------
   2  1  0     -190.6921683950    -0.2973731942   0.183730717   0.049575056
   3  2  0     -190.7079447441    -0.0157763491   0.077894214   0.012835598
   4  3  0     -190.7094037564    -0.0014590123   0.003965443   0.001388292
   5  4  0     -190.7094408579    -0.0000371015   0.002197566   0.000740931
   6  5  0     -190.7094460494    -0.0000051915   0.000110314   0.000034268
   7  6  0     -190.7094460930    -0.0000000436   0.000038836   0.000009697
   8  7  0     -190.7094460960    -0.0000000029   0.000006445   0.000002294
   9  8  0     -190.7094460960    -0.0000000001   0.000001759   0.000000510

          -----------------
          DENSITY CONVERGED
          -----------------
     TIME TO FORM FOCK OPERATORS=       0.0 SECONDS (       0.0 SEC/ITER)
     TIME TO SOLVE SCF EQUATIONS=       0.0 SECONDS (       0.0 SEC/ITER)

 FINAL RHF ENERGY IS     -190.7094460960 AFTER   9 ITERATIONS

          ------------
          EIGENVECTORS
          ------------

                      1          2          3          4          5
                  -20.2438   -11.0885   -11.0485   -11.0412    -1.2800
                     A          A          A          A          A   
    1  O  1  S    0.994166   0.000436  -0.000006   0.000012  -0.221277
    2  O  1  S    0.026050  -0.004493   0.000246  -0.000081   0.790996
    3  O  1  X   -0.002749   0.002509  -0.000076   0.000068  -0.087009
    4  O  1  Y   -0.000430  -0.001525   0.000075  -0.000004  -0.007008
    5  O  1  Z    0.002900   0.000297   0.000031   0.000011   0.078839
    6  C  2  S   -0.000017  -0.002926   0.991730   0.018770  -0.023266
    7  C  2  S    0.000293  -0.005860   0.037747  -0.005127   0.055006
    8  C  2  X    0.000339  -0.003214  -0.000031   0.003871   0.021769
    9  C  2  Y   -0.000001  -0.002824  -0.000210  -0.001873   0.011289
   10  C  2  Z   -0.000013  -0.000008   0.000039   0.000029   0.000890
   11  C  3  S    0.000535   0.992110   0.003911   0.000907  -0.087169
   12  C  3  S   -0.004413   0.036124  -0.005771  -0.000008   0.220862
   13  C  3  X   -0.003627  -0.000363   0.003131   0.000173   0.083236
   14  C  3  Y    0.001894   0.000340   0.002955  -0.000083  -0.052621
   15  C  3  Z    0.000056   0.000029  -0.000000   0.000001   0.006487
   16  C  4  S    0.000008  -0.000759  -0.017785   0.991785  -0.004531
   17  C  4  S   -0.000014   0.000068  -0.006565   0.037658   0.011082
   18  C  4  X   -0.000079  -0.000081  -0.003894  -0.000234   0.004890
   19  C  4  Y   -0.000074  -0.000173   0.001895   0.000082  -0.001425
   20  C  4  Z   -0.000009  -0.000001  -0.000031   0.000004   0.000075
   21  H  5  S   -0.000066   0.000009  -0.006967  -0.000073   0.009303
   22  H  6  S    0.000177   0.000048  -0.006989  -0.000074   0.008956
   23  H  7  S    0.000310  -0.006945   0.000018   0.000004   0.027756
   24  H  8  S    0.000386  -0.006955   0.000018   0.000007   0.028805
   25  H  9  S   -0.000020   0.000020   0.000160  -0.006926   0.001602
   26  H 10  S   -0.000032  -0.000127   0.000211  -0.006929   0.001274
   27  H 11  S   -0.000020   0.000015   0.000160  -0.006930   0.001620
   28  H 12  S   -0.005957  -0.001001  -0.000104  -0.000039   0.145813

                      6          7          8          9         10
                   -1.0149    -0.8714    -0.7782    -0.6333    -0.5832
                     A          A          A          A          A   
    1  O  1  S    0.051241   0.058283  -0.016344   0.030597  -0.010370
    2  O  1  S   -0.201619  -0.242320   0.070022  -0.148640   0.055117
    3  O  1  X   -0.035685  -0.107317   0.056521   0.055549  -0.147933
    4  O  1  Y    0.021603   0.085281  -0.138748  -0.081378   0.290730
    5  O  1  Z   -0.027533  -0.053717   0.045380   0.280412  -0.167841
    6  C  2  S   -0.166937  -0.035620  -0.133578   0.005123   0.007253
    7  C  2  S    0.454093   0.105591   0.415585  -0.017059  -0.027750
    8  C  2  X   -0.026685   0.163700   0.027526   0.012835  -0.057479
    9  C  2  Y    0.044799   0.028254  -0.158520   0.068196  -0.248332
   10  C  2  Z    0.001624   0.000226   0.009255   0.282750   0.190515
   11  C  3  S   -0.084623  -0.149765   0.100528  -0.008524  -0.003730
   12  C  3  S    0.232818   0.448706  -0.322135   0.017201   0.032568
   13  C  3  X   -0.099415  -0.056353  -0.067981  -0.109818   0.305864
   14  C  3  Y   -0.025502   0.023750  -0.171088   0.054442   0.003012
   15  C  3  Z    0.000344  -0.002717   0.011348   0.366004   0.046172
   16  C  4  S   -0.138127   0.150995   0.080938   0.002078  -0.003908
   17  C  4  S    0.374538  -0.441423  -0.250047  -0.006464   0.010728
   18  C  4  X    0.063739   0.054501   0.105154   0.025827  -0.170211
   19  C  4  Y   -0.024788  -0.004022  -0.095082   0.040721  -0.208731
   20  C  4  Z    0.000863  -0.000341   0.002555   0.167551   0.184950
   21  H  5  S    0.101454   0.029153   0.189017  -0.207635  -0.020663
   22  H  6  S    0.105246   0.029340   0.202977   0.145265   0.227488
   23  H  7  S    0.056443   0.141877  -0.166346  -0.176860  -0.047597
   24  H  8  S    0.056084   0.139178  -0.157815   0.261911   0.022109
   25  H  9  S    0.086734  -0.134669  -0.125802  -0.094125  -0.201852
   26  H 10  S    0.083058  -0.151098  -0.088024  -0.037767   0.223831
   27  H 11  S    0.087232  -0.135438  -0.124381   0.121458   0.045775
   28  H 12  S   -0.061420  -0.121575   0.109509   0.200560  -0.266472

                     11         12         13         14         15
                   -0.5519    -0.5323    -0.4970    -0.4651    -0.4513
                     A          A          A          A          A   
    1  O  1  S    0.009806  -0.043248  -0.034004  -0.008467  -0.012191
    2  O  1  S   -0.051305   0.210914   0.172416   0.043120   0.062007
    3  O  1  X    0.190938   0.338100   0.032314  -0.156695   0.109621
    4  O  1  Y    0.077968   0.010342   0.371766  -0.051506  -0.116239
    5  O  1  Z    0.232719  -0.106217  -0.100634  -0.117377  -0.133633
    6  C  2  S   -0.000004  -0.020798  -0.023871  -0.012159   0.005749
    7  C  2  S   -0.002231   0.075073   0.088266   0.053555  -0.023636
    8  C  2  X   -0.199650  -0.275772  -0.211815  -0.151803   0.070974
    9  C  2  Y   -0.140523   0.073844   0.014736   0.407802  -0.060827
   10  C  2  Z   -0.149280   0.085599   0.033848   0.072182   0.413649
   11  C  3  S    0.000236   0.026170   0.030215  -0.015628   0.002083
   12  C  3  S   -0.016943  -0.107214  -0.090481   0.076027  -0.017373
   13  C  3  X    0.033642  -0.084761   0.210402  -0.068624  -0.081483
   14  C  3  Y    0.325462   0.288029   0.009261  -0.245709   0.075455
   15  C  3  Z    0.143451  -0.238511   0.202642   0.049107  -0.161453
   16  C  4  S    0.004827   0.002577  -0.007245  -0.018011   0.006542
   17  C  4  S   -0.017005  -0.005537   0.028384   0.072937  -0.025786
   18  C  4  X   -0.021316   0.268046   0.334365   0.174598  -0.090417
   19  C  4  Y   -0.283028  -0.081865   0.195455  -0.378807   0.038068
   20  C  4  Z   -0.239987   0.258423  -0.180029  -0.084646  -0.315901
   21  H  5  S    0.155275  -0.085377  -0.012217  -0.289809  -0.307380
   22  H  6  S   -0.043805   0.036906   0.033812  -0.180540   0.391095
   23  H  7  S    0.060565   0.263041  -0.215848  -0.156876   0.190407
   24  H  8  S    0.248495  -0.054880   0.089630  -0.081247  -0.093868
   25  H  9  S    0.026944  -0.252235   0.217139  -0.140066   0.299777
   26  H 10  S    0.177694  -0.122879  -0.346875   0.173750   0.028255
   27  H 11  S   -0.308299   0.112566  -0.054596  -0.284128  -0.252136
   28  H 12  S    0.135783   0.011271  -0.244147  -0.085251   0.011642

                     16         17         18         19         20
                   -0.3914    -0.3430     0.5631     0.5997     0.6283
                     A          A          A          A          A   
    1  O  1  S    0.071725  -0.005686  -0.109593  -0.016412   0.024747
    2  O  1  S   -0.379538   0.031648   0.693685   0.094571  -0.165022
    3  O  1  X   -0.438854   0.420503  -0.450334  -0.271478  -0.091616
    4  O  1  Y    0.076581   0.668337  -0.036488   0.165101   0.074856
    5  O  1  Z    0.513026   0.401266   0.374039  -0.032082  -0.219694
    6  C  2  S    0.009168  -0.026569  -0.002697  -0.001412  -0.010925
    7  C  2  S   -0.034557   0.109821   0.002795  -0.004875   0.048752
    8  C  2  X   -0.211316   0.232466  -0.320497  -0.101580   0.306546
    9  C  2  Y   -0.041331   0.169057   0.093078   0.289255   0.573205
   10  C  2  Z    0.070311   0.020357   0.193497  -0.571970   0.285584
   11  C  3  S   -0.007693  -0.006189   0.025043   0.021803   0.049150
   12  C  3  S    0.037901   0.028317  -0.076331  -0.092295  -0.278393
   13  C  3  X    0.283167  -0.130547  -0.611369  -0.180921   0.378434
   14  C  3  Y   -0.027852  -0.153487   0.329319   0.320587   0.447483
   15  C  3  Z   -0.205197  -0.083509   0.231205  -0.460857   0.096966
   16  C  4  S   -0.014672   0.009105   0.051428   0.029162  -0.002430
   17  C  4  S    0.057952  -0.037361  -0.291913  -0.168700   0.012692
   18  C  4  X    0.181889  -0.128533  -0.240251  -0.086643   0.226185
   19  C  4  Y   -0.006072  -0.007908   0.189173   0.259087   0.523564
   20  C  4  Z   -0.002648   0.004519   0.097215  -0.372783   0.244206
   21  H  5  S   -0.092562  -0.071296   0.308046  -0.322960   0.543642
   22  H  6  S    0.072045  -0.016526  -0.030251   0.709238   0.016462
   23  H  7  S    0.207672  -0.005626   0.080660  -0.543633  -0.027181
   24  H  8  S   -0.245169  -0.243007  -0.333967   0.260302  -0.199218
   25  H  9  S    0.016032  -0.017034   0.088668  -0.422420  -0.087969
   26  H 10  S   -0.119059   0.106062   0.103226   0.219847   0.569419
   27  H 11  S   -0.011452  -0.018016  -0.093618   0.238500  -0.515701
   28  H 12  S    0.235195  -0.014432  -0.628193   0.144427   0.325514

                     21         22         23         24         25
                    0.6761     0.7036     0.7175     0.7490     0.7576
                     A          A          A          A          A   
    1  O  1  S    0.046973   0.017417   0.029922   0.003480   0.004474
    2  O  1  S   -0.315562  -0.103528  -0.202685  -0.011208  -0.030086
    3  O  1  X   -0.064626   0.169115  -0.001932   0.089692   0.076188
    4  O  1  Y    0.285036  -0.221286   0.197578  -0.105660   0.072152
    5  O  1  Z   -0.356487  -0.006481  -0.318597   0.059217  -0.006148
    6  C  2  S   -0.010952  -0.116370   0.105410   0.102291   0.127658
    7  C  2  S    0.068868   0.725236  -0.659144  -0.611433  -0.786323
    8  C  2  X   -0.556159  -0.081203  -0.253352   0.320581  -0.278185
    9  C  2  Y    0.045324   0.048136   0.132682  -0.483029  -0.211844
   10  C  2  Z    0.182071  -0.033333   0.073492  -0.042207  -0.033614
   11  C  3  S   -0.085913  -0.067026  -0.039507  -0.172891  -0.027805
   12  C  3  S    0.530652   0.405694   0.238565   1.092591   0.153390
   13  C  3  X   -0.251892   0.376415  -0.212170  -0.207765  -0.323388
   14  C  3  Y    0.093375   0.363634  -0.186774   0.448145  -0.542449
   15  C  3  Z   -0.227960   0.386259   0.583048  -0.055907   0.014280
   16  C  4  S    0.028105  -0.065018   0.066004  -0.059880  -0.164702
   17  C  4  S   -0.156952   0.426776  -0.423871   0.362364   1.047793
   18  C  4  X   -0.581530  -0.563492   0.185672   0.584338  -0.036479
   19  C  4  Y   -0.096198   0.241553  -0.140451  -0.117037   0.511013
   20  C  4  Z    0.364495  -0.419669  -0.546363   0.083145   0.034954
   21  H  5  S    0.197843  -0.288846   0.417672  -0.018631   0.239214
   22  H  6  S   -0.145398  -0.227465   0.276083   0.051519   0.281041
   23  H  7  S   -0.502574  -0.036093   0.403302  -0.736814   0.207802
   24  H  8  S   -0.145626  -0.642781  -0.505197  -0.647339   0.192539
   25  H  9  S    0.389226  -0.673460  -0.169539   0.044138  -0.676066
   26  H 10  S   -0.410120  -0.383877   0.191909   0.128137  -0.150986
   27  H 11  S   -0.218921  -0.009233   0.688736  -0.074846  -0.728092
   28  H 12  S    0.635120  -0.077914   0.381302  -0.082443   0.005387

                     26         27         28
                    0.7730     0.7834     0.8089
                     A          A          A   
    1  O  1  S   -0.029329  -0.007994   0.001128
    2  O  1  S    0.174022   0.059950  -0.000289
    3  O  1  X   -0.470891   0.100368   0.120089
    4  O  1  Y    0.380631  -0.191983  -0.131631
    5  O  1  Z   -0.207356   0.153877   0.205537
    6  C  2  S   -0.010531   0.107314   0.026375
    7  C  2  S    0.077069  -0.693213  -0.170132
    8  C  2  X    0.639623   0.237361  -0.074275
    9  C  2  Y   -0.191206   0.698030   0.115516
   10  C  2  Z    0.215950  -0.169008   0.828806
   11  C  3  S    0.117006  -0.002341  -0.028667
   12  C  3  S   -0.674200  -0.004334   0.163973
   13  C  3  X   -0.376163   0.266852   0.105429
   14  C  3  Y    0.370587   0.106884  -0.072412
   15  C  3  Z    0.021894   0.037329  -0.659756
   16  C  4  S   -0.122603  -0.070673   0.001200
   17  C  4  S    0.780243   0.442525  -0.009849
   18  C  4  X    0.028948  -0.263177  -0.019073
   19  C  4  Y   -0.379871  -0.592592  -0.012890
   20  C  4  Z   -0.220471   0.150007  -0.584410
   21  H  5  S   -0.013952   0.492422   0.663526
   22  H  6  S   -0.322375   0.727424  -0.400762
   23  H  7  S    0.158111  -0.037818  -0.464426
   24  H  8  S    0.099462  -0.072410   0.388683
   25  H  9  S   -0.288576   0.175020  -0.371931
   26  H 10  S   -0.521439  -0.701360  -0.018214
   27  H 11  S    0.024059  -0.027957   0.383176
   28  H 12  S    0.338605  -0.273282  -0.175371
 ...... END OF RHF CALCULATION ......
 STEP CPU TIME =     0.01 TOTAL CPU TIME =          0.1 (      0.0 MIN)
 TOTAL WALL CLOCK TIME=          0.1 SECONDS, CPU UTILIZATION IS    53.85%

     ----------------------------------------------------------------
     PROPERTY VALUES FOR THE RHF   SELF-CONSISTENT FIELD WAVEFUNCTION
     ----------------------------------------------------------------

          -----------------
          ENERGY COMPONENTS
          -----------------

         WAVEFUNCTION NORMALIZATION =       1.0000000000

                ONE ELECTRON ENERGY =    -519.4107289921
                TWO ELECTRON ENERGY =     197.8904857645
           NUCLEAR REPULSION ENERGY =     130.8107971316
                                      ------------------
                       TOTAL ENERGY =    -190.7094460960

 ELECTRON-ELECTRON POTENTIAL ENERGY =     197.8904857645
  NUCLEUS-ELECTRON POTENTIAL ENERGY =    -708.5496568246
   NUCLEUS-NUCLEUS POTENTIAL ENERGY =     130.8107971316
                                      ------------------
             TOTAL POTENTIAL ENERGY =    -379.8483739285
               TOTAL KINETIC ENERGY =     189.1389278325
                 VIRIAL RATIO (V/T) =       2.0083035168

          ---------------------------------------
          MULLIKEN AND LOWDIN POPULATION ANALYSES
          ---------------------------------------

     ATOMIC MULLIKEN POPULATION IN EACH MOLECULAR ORBITAL

                      1          2          3          4          5

                  2.000000   2.000000   2.000000   2.000000   2.000000

    1             2.001238  -0.000396   0.000000  -0.000000   1.484271
    2             0.000003  -0.000786   2.002871  -0.000142   0.024605
    3            -0.000560   2.003124  -0.000799   0.000000   0.295998
    4            -0.000000   0.000001  -0.000156   2.003027   0.001043
    5            -0.000000   0.000000  -0.000959  -0.000001   0.001432
    6             0.000000   0.000001  -0.000962  -0.000001   0.001508
    7             0.000003  -0.000961   0.000000   0.000000   0.010223
    8             0.000004  -0.000961   0.000000   0.000000   0.011577
    9            -0.000000   0.000000   0.000002  -0.000960   0.000050
   10            -0.000000  -0.000000   0.000002  -0.000961   0.000026
   11            -0.000000   0.000000   0.000002  -0.000961   0.000052
   12            -0.000688  -0.000020  -0.000000  -0.000000   0.169214

                      6          7          8          9         10

                  2.000000   2.000000   2.000000   2.000000   2.000000

    1             0.076807   0.163587   0.091924   0.287951   0.379952
    2             0.729252   0.175307   0.502592   0.326500   0.351213
    3             0.258847   0.526961   0.374032   0.528684   0.285166
    4             0.529007   0.539666   0.239442   0.119319   0.374488
    5             0.081114   0.004490   0.159998   0.144673   0.001017
    6             0.084580   0.004138   0.181630   0.069781   0.155333
    7             0.025605   0.108402   0.123538   0.101391   0.007827
    8             0.024818   0.102627   0.109518   0.226108   0.001160
    9             0.060271   0.100055   0.073019   0.030272   0.122379
   10             0.055361   0.128247   0.034679   0.004810   0.152390
   11             0.060795   0.101015   0.071101   0.050178   0.006573
   12             0.013545   0.045504   0.038527   0.110332   0.162502

                     11         12         13         14         15

                  2.000000   2.000000   2.000000   2.000000   2.000000

    1             0.247010   0.369375   0.387922   0.093940   0.103890
    2             0.259982   0.275895   0.137081   0.525089   0.476675
    3             0.375969   0.429687   0.236855   0.171022   0.090307
    4             0.454977   0.453750   0.535893   0.502774   0.294841
    5             0.070720   0.020546   0.000499   0.210168   0.217935
    6             0.004574   0.003547   0.002420   0.082443   0.351496
    7             0.011875   0.189373   0.118948   0.062621   0.085209
    8             0.173457   0.006571   0.018815   0.017590   0.019036
    9             0.002056   0.175650   0.116406   0.050180   0.211834
   10             0.089171   0.042825   0.310729   0.068769   0.002053
   11             0.267945   0.032848   0.008188   0.198940   0.146270
   12             0.042262  -0.000066   0.126243   0.016464   0.000454

                     16         17

                  2.000000   2.000000

    1             1.129014   1.490477
    2             0.122129   0.197222
    3             0.291653   0.120911
    4             0.084592   0.039559
    5             0.017521   0.009727
    6             0.010620   0.000603
    7             0.090363   0.000125
    8             0.125402   0.117571
    9             0.000433   0.000526
   10             0.030935   0.022278
   11             0.000391   0.000619
   12             0.096945   0.000381

               ----- POPULATIONS IN EACH AO -----
                             MULLIKEN      LOWDIN
              1  O  1  S      1.99767     1.99587
              2  O  1  S      1.82359     1.69423
              3  O  1  X      1.40712     1.42701
              4  O  1  Y      1.59050     1.60239
              5  O  1  Z      1.48808     1.50113
              6  C  2  S      1.99200     1.98510
              7  C  2  S      1.17478     1.02311
              8  C  2  X      0.94995     0.99225
              9  C  2  Y      0.97502     1.00752
             10  C  2  Z      1.01374     1.03630
             11  C  3  S      1.99231     1.98486
             12  C  3  S      1.17062     1.03853
             13  C  3  X      0.84295     0.89118
             14  C  3  Y      0.95386     0.98516
             15  C  3  Z      1.02811     1.04700
             16  C  4  S      1.99203     1.98532
             17  C  4  S      1.18247     1.01392
             18  C  4  X      0.97397     1.00970
             19  C  4  Y      1.00735     1.03400
             20  C  4  Z      1.01640     1.04058
             21  H  5  S      0.93888     0.97147
             22  H  6  S      0.95171     0.98123
             23  H  7  S      0.93454     0.96996
             24  H  8  S      0.95329     0.98722
             25  H  9  S      0.94217     0.97226
             26  H 10  S      0.94131     0.97147
             27  H 11  S      0.94396     0.97370
             28  H 12  S      0.82160     0.87752

          ----- MULLIKEN ATOMIC OVERLAP POPULATIONS -----
          (OFF-DIAGONAL ELEMENTS NEED TO BE MULTIPLIED BY 2)

             1           2           3           4           5

    1    7.8366917
    2   -0.0193355   4.7494406
    3    0.2691065   0.3610929   4.7146820
    4    0.0002789   0.3640996  -0.0223497   4.7276113
    5   -0.0006279   0.3826106  -0.0223006  -0.0215728   0.6284319
    6   -0.0011614   0.3815193  -0.0229907  -0.0218868  -0.0242826
    7   -0.0180501  -0.0226501   0.3801898  -0.0016164  -0.0025046
    8   -0.0179192  -0.0250144   0.3759753  -0.0015931   0.0018714
    9    0.0000037  -0.0211417  -0.0022692   0.3832118  -0.0023087
   10   -0.0000054  -0.0206500   0.0013091   0.3830671  -0.0023261
   11    0.0000027  -0.0212877  -0.0022553   0.3829746   0.0019065
   12    0.2579788  -0.0031940  -0.0423329  -0.0000033  -0.0000165

             6           7           8           9          10

    6    0.6431125
    7    0.0018141   0.6176455
    8   -0.0023192  -0.0241817   0.6495080
    9    0.0019186   0.0003231   0.0000093   0.6253377
   10   -0.0023519   0.0000004  -0.0000056  -0.0212770   0.6249240
   11   -0.0023208  -0.0000056   0.0003875  -0.0216358  -0.0213705
   12    0.0006587   0.0035800  -0.0034249  -0.0000003   0.0000000

            11          12

   11    0.6275583
   12    0.0000031   0.6083496

          TOTAL MULLIKEN AND LOWDIN ATOMIC POPULATIONS
       ATOM         MULL.POP.    CHARGE          LOW.POP.     CHARGE
    1 O             8.306963   -0.306963         8.220629   -0.220629
    2 C             6.105490   -0.105490         6.044278   -0.044278
    3 C             5.987857    0.012143         5.946735    0.053265
    4 C             6.172221   -0.172221         6.083522   -0.083522
    5 H             0.938881    0.061119         0.971472    0.028528
    6 H             0.951710    0.048290         0.981233    0.018767
    7 H             0.934544    0.065456         0.969960    0.030040
    8 H             0.953294    0.046706         0.987223    0.012777
    9 H             0.942172    0.057828         0.972261    0.027739
   10 H             0.941314    0.058686         0.971467    0.028533
   11 H             0.943957    0.056043         0.973702    0.026298
   12 H             0.821598    0.178402         0.877518    0.122482

          -------------------------------
          BOND ORDER AND VALENCE ANALYSIS     BOND ORDER THRESHOLD=0.050
          -------------------------------

                   BOND                       BOND                       BOND
  ATOM PAIR DIST  ORDER      ATOM PAIR DIST  ORDER      ATOM PAIR DIST  ORDER
    1   3  1.421  0.981        1  12  0.972  0.943        2   3  1.522  0.985
    2   4  1.518  1.003        2   5  1.097  0.974        2   6  1.097  0.974
    3   7  1.094  0.969        3   8  1.095  0.965        4   9  1.095  0.982
    4  10  1.094  0.983        4  11  1.095  0.982

                       TOTAL       BONDED        FREE
      ATOM            VALENCE     VALENCE     VALENCE
    1 O                 1.977       1.977       0.000
    2 C                 3.968       3.968       0.000
    3 C                 3.931       3.931       0.000
    4 C                 3.967       3.967       0.000
    5 H                 0.996       0.996       0.000
    6 H                 0.998       0.998       0.000
    7 H                 0.996       0.996       0.000
    8 H                 0.998       0.998      -0.000
    9 H                 0.997       0.997       0.000
   10 H                 0.997       0.997       0.000
   11 H                 0.997       0.997       0.000
   12 H                 0.968       0.968       0.000

          ---------------------
          ELECTROSTATIC MOMENTS
          ---------------------

 POINT   1           X           Y           Z (BOHR)    CHARGE
                 0.087542   -0.009284    0.026422        0.00 (A.U.)
         DX          DY          DZ         /D/  (DEBYE)
    -1.116260   -0.207428    1.010853    1.520160
 ...... END OF PROPERTY EVALUATION ......
 STEP CPU TIME =     0.00 TOTAL CPU TIME =          0.1 (      0.0 MIN)
 TOTAL WALL CLOCK TIME=          0.1 SECONDS, CPU UTILIZATION IS    50.00%

 BEGINNING ONE ELECTRON GRADIENT...
 ..... END OF 1-ELECTRON GRADIENT ......
 STEP CPU TIME =     0.01 TOTAL CPU TIME =          0.1 (      0.0 MIN)
 TOTAL WALL CLOCK TIME=          0.1 SECONDS, CPU UTILIZATION IS    53.33%

          ----------------------
          GRADIENT OF THE ENERGY
          ----------------------
 THE COARSE/FINE SCHWARZ SCREENINGS SKIPPED          656/         549 BLOCKS.
 THE NUMBER OF GRADIENT INTEGRAL BLOCKS COMPUTED WAS      8079
 ...... END OF 2-ELECTRON GRADIENT ......
 STEP CPU TIME =     0.03 TOTAL CPU TIME =          0.1 (      0.0 MIN)
 TOTAL WALL CLOCK TIME=          0.2 SECONDS, CPU UTILIZATION IS    57.89%

          NSERCH=  0     ENERGY=    -190.7094461

                                 -----------------------
                                 GRADIENT (HARTREE/BOHR)
                                 -----------------------
        ATOM     ZNUC       DE/DX         DE/DY         DE/DZ
 --------------------------------------------------------------
    1  O            8.0    -0.0269423    -0.0108421     0.0338379
    2  C            6.0     0.0081946     0.0226881     0.0006715
    3  C            6.0    -0.0155492    -0.0003030    -0.0130510
    4  C            6.0     0.0249804    -0.0062589    -0.0001402
    5  H            1.0    -0.0006617    -0.0067307    -0.0042468
    6  H            1.0     0.0001271    -0.0061152     0.0036295
    7  H            1.0    -0.0015096     0.0017401    -0.0006997
    8  H            1.0     0.0091247    -0.0042306     0.0000411
    9  H            1.0    -0.0010325     0.0040492    -0.0064789
   10  H            1.0    -0.0041959    -0.0062706     0.0000058
   11  H            1.0    -0.0009136     0.0039433     0.0063977
   12  H            1.0     0.0083780     0.0083304    -0.0199668

          MAXIMUM GRADIENT = 0.0338379    RMS GRADIENT = 0.0112786

 NSERCH:   0  E=     -190.7094460960  GRAD. MAX=  0.0338379  R.M.S.=  0.0112786

          FORCE CONSTANT MATRIX NOT UPDATED --- TAKING FIRST STEP
          MIN SEARCH, CORRECT HESSIAN, TRYING PURE NR STEP
               NR STEP HAS LENGTH         =   0.379270
          TRIM/QA LAMBDA FOR NON-TS MODES =  -0.01796347
          TRIM/QA STEP HAS LENGTH         =   0.300000
          RADIUS OF STEP TAKEN=   0.30000  CURRENT TRUST RADIUS=   0.30000

 BEGINNING GEOMETRY SEARCH POINT NSERCH=   1 ...

 COORDINATES OF ALL ATOMS ARE (ANGS)
   ATOM   CHARGE       X              Y              Z
 ------------------------------------------------------------
 O           8.0   1.9217995083  -0.1450649502  -0.0803209046
 C           6.0  -0.5478446520  -0.5254997578   0.0097018469
 C           6.0   0.6259805577   0.4754069540   0.0445828230
 C           6.0  -1.9251509901   0.1485371171  -0.0043626749
 H           1.0  -0.4245274457  -1.1447198507  -0.8738731847
 H           1.0  -0.4450357774  -1.1445294137   0.8968812435
 H           1.0   0.5531173559   1.1132741683  -0.8533481294
 H           1.0   0.4936039739   1.1662787906   0.8870738213
 H           1.0  -2.0182844318   0.7734183206  -0.8878109355
 H           1.0  -2.7069589915  -0.5997144765  -0.0079020744
 H           1.0  -2.0395031547   0.7814203470   0.8703486576
 H           1.0   1.8733940473  -0.6647972487   0.8025395111

          INTERNUCLEAR DISTANCES (ANGS.)
          ------------------------------

                1 O          2 C          3 C          4 C          5 H     

   1 O       0.0000000    2.5003954 *  1.4421280 *  3.8588858    2.6710083 *
   2 C       2.5003954 *  0.0000000    1.5430154 *  1.5334589 *  1.0859767 *
   3 C       1.4421280 *  1.5430154 *  0.0000000    2.5724525 *  2.1382094 *
   4 C       3.8588858    1.5334589 *  2.5724525 *  0.0000000    2.1634309 *
   5 H       2.6710083 *  1.0859767 *  2.1382094 *  2.1634309 *  0.0000000  
   6 H       2.7487747 *  1.0866714 *  2.1207740 *  2.1621755 *  1.7708732 *
   7 H       2.0135241 *  2.1546583 *  1.1038404 *  2.7916497 *  2.4606397 *
   8 H       2.1668450 *  2.1717531 *  1.0975512 *  2.7714315 *  3.0470665  
   9 H       4.1255197    2.1575242 *  2.8196287 *  1.0861083 *  2.4938945 *
  10 H       4.6515971    2.1604612 *  3.5024458    1.0821815 *  2.5012858 *
  11 H       4.1778064    2.1618969 *  2.8071938 *  1.0856968 *  3.0594889  
  12 H       1.0256253 *  2.5515470 *  1.8521891 *  3.9675620    2.8846366 *

                6 H          7 H          8 H          9 H         10 H     

   1 O       2.7487747 *  2.0135241 *  2.1668450 *  4.1255197    4.6515971  
   2 C       1.0866714 *  2.1546583 *  2.1717531 *  2.1575242 *  2.1604612 *
   3 C       2.1207740 *  1.1038404 *  1.0975512 *  2.8196287 *  3.5024458  
   4 C       2.1621755 *  2.7916497 *  2.7714315 *  1.0861083 *  1.0821815 *
   5 H       1.7708732 *  2.4606397 *  3.0470665    2.4938945 *  2.5012858 *
   6 H       0.0000000    3.0261014    2.4941883 *  3.0559386    2.4963479 *
   7 H       3.0261014    0.0000000    1.7422456 *  2.5939925 *  3.7785191  
   8 H       2.4941883 *  1.7422456 *  0.0000000    3.1006674    3.7634183  
   9 H       3.0559386    2.5939925 *  3.1006674    0.0000000    1.7703124 *
  10 H       2.4963479 *  3.7785191    3.7634183    1.7703124 *  0.0000000  
  11 H       2.5004625 *  3.1309645    2.5622310 *  1.7583058 *  1.7675845 *
  12 H       2.3694219 *  2.7652545 *  2.2942986 *  4.4800569    4.6519550  

               11 H         12 H     

   1 O       4.1778064    1.0256253 *
   2 C       2.1618969 *  2.5515470 *
   3 C       2.8071938 *  1.8521891 *
   4 C       1.0856968 *  3.9675620  
   5 H       3.0594889    2.8846366 *
   6 H       2.5004625 *  2.3694219 *
   7 H       3.1309645    2.7652545 *
   8 H       2.5622310 *  2.2942986 *
   9 H       1.7583058 *  4.4800569  
  10 H       1.7675845 *  4.6519550  
  11 H       0.0000000    4.1721587  
  12 H       4.1721587    0.0000000  

  * ... LESS THAN  3.000

 ...... END OF ONE-ELECTRON INTEGRALS ......
 STEP CPU TIME =     0.00 TOTAL CPU TIME =          0.1 (      0.0 MIN)
 TOTAL WALL CLOCK TIME=          0.2 SECONDS, CPU UTILIZATION IS    57.89%
 TOTAL NUMBER OF NONZERO TWO-ELECTRON INTEGRALS =               77413
          6 INTEGRAL RECORDS WERE STORED ON DISK FILE  8.
  ...... END OF TWO-ELECTRON INTEGRALS .....
 STEP CPU TIME =     0.02 TOTAL CPU TIME =          0.1 (      0.0 MIN)
 TOTAL WALL CLOCK TIME=          0.2 SECONDS, CPU UTILIZATION IS    61.90%

          --------------------------
                 RHF SCF CALCULATION
          --------------------------
     DENSITY MATRIX CONV=  5.00E-05

 ITER EX DEM     TOTAL ENERGY        E CHANGE  DENSITY CHANGE     ORB. GRAD
          ---------------START SECOND ORDER SCF---------------
   1  0  0     -190.7018638574  -190.7018638574   0.047781223   0.015874724
   2  1  0     -190.7052474908    -0.0033836334   0.028881299   0.004009891
   3  2  0     -190.7057540434    -0.0005065526   0.002527483   0.000837503
   4  3  0     -190.7057728948    -0.0000188513   0.001207268   0.000269733
   5  4  0     -190.7057756764    -0.0000027817   0.000100174   0.000038637
   6  5  0     -190.7057757143    -0.0000000379   0.000064012   0.000012623
   7  6  0     -190.7057757195    -0.0000000052   0.000017328   0.000003912
   8  7  0     -190.7057757199    -0.0000000003   0.000009024   0.000001400

          -----------------
          DENSITY CONVERGED
          -----------------
     TIME TO FORM FOCK OPERATORS=       0.0 SECONDS (       0.0 SEC/ITER)
     TIME TO SOLVE SCF EQUATIONS=       0.0 SECONDS (       0.0 SEC/ITER)

 FINAL RHF ENERGY IS     -190.7057757199 AFTER   8 ITERATIONS
 ...... END OF RHF CALCULATION ......
 STEP CPU TIME =     0.01 TOTAL CPU TIME =          0.1 (      0.0 MIN)
 TOTAL WALL CLOCK TIME=          0.2 SECONDS, CPU UTILIZATION IS    63.64%
 ..... END OF 1-ELECTRON GRADIENT ......
 STEP CPU TIME =     0.01 TOTAL CPU TIME =          0.1 (      0.0 MIN)
 TOTAL WALL CLOCK TIME=          0.2 SECONDS, CPU UTILIZATION IS    65.22%
 ...... END OF 2-ELECTRON GRADIENT ......
 STEP CPU TIME =     0.03 TOTAL CPU TIME =          0.2 (      0.0 MIN)
 TOTAL WALL CLOCK TIME=          0.3 SECONDS, CPU UTILIZATION IS    69.23%

          NSERCH=  1     ENERGY=    -190.7057757

                                 -----------------------
                                 GRADIENT (HARTREE/BOHR)
                                 -----------------------
        ATOM     ZNUC       DE/DX         DE/DY         DE/DZ
 --------------------------------------------------------------
    1  O            8.0     0.0259717     0.0178052    -0.0628726
    2  C            6.0    -0.0108442     0.0049266    -0.0065553
    3  C            6.0     0.0067163    -0.0331346     0.0482352
    4  C            6.0    -0.0063254    -0.0064214     0.0002572
    5  H            1.0     0.0018117     0.0045351    -0.0011299
    6  H            1.0     0.0053744     0.0074660     0.0012616
    7  H            1.0     0.0036140     0.0024939    -0.0063761
    8  H            1.0    -0.0110613     0.0076270    -0.0060727
    9  H            1.0     0.0031681     0.0008321     0.0000268
   10  H            1.0     0.0034366     0.0004803     0.0003261
   11  H            1.0     0.0026055     0.0004851    -0.0004382
   12  H            1.0    -0.0244673    -0.0070952     0.0333379

          MAXIMUM GRADIENT = 0.0628726    RMS GRADIENT = 0.0173681

 NSERCH:   1  E=     -190.7057757199  GRAD. MAX=  0.0628726  R.M.S.=  0.0173681

          HESSIAN UPDATED USING THE BFGS FORMULA
             ACTUAL ENERGY CHANGE WAS   0.0036703761
          PREDICTED ENERGY CHANGE WAS  -0.0080008542 RATIO= -0.459
          MIN SEARCH, CORRECT HESSIAN, TRYING PURE NR STEP
               NR STEP HAS LENGTH         =   0.284055
          TRIM/QA LAMBDA FOR NON-TS MODES =  -0.08575304
          TRIM/QA STEP HAS LENGTH         =   0.150000
          RADIUS OF STEP TAKEN=   0.15000  CURRENT TRUST RADIUS=   0.15000

 BEGINNING GEOMETRY SEARCH POINT NSERCH=   2 ...

 COORDINATES OF ALL ATOMS ARE (ANGS)
   ATOM   CHARGE       X              Y              Z
 ------------------------------------------------------------
 O           8.0   1.9037370234  -0.1379532759  -0.0354780121
 C           6.0  -0.5413877490  -0.5270388436   0.0154443779
 C           6.0   0.6188804589   0.4963830115   0.0131047180
 C           6.0  -1.9210925629   0.1515852853  -0.0041511919
 H           1.0  -0.4266576034  -1.1487773155  -0.8680302512
 H           1.0  -0.4508573679  -1.1524293499   0.8961903929
 H           1.0   0.5459834517   1.1254421668  -0.8699070566
 H           1.0   0.5036423547   1.1513645862   0.8899714306
 H           1.0  -2.0234598674   0.7709539879  -0.8882233265
 H           1.0  -2.7083381785  -0.5940531694  -0.0085343899
 H           1.0  -2.0430429487   0.7810529174   0.8700998450
 H           1.0   1.9031829891  -0.6825200008   0.7930234639

          INTERNUCLEAR DISTANCES (ANGS.)
          ------------------------------

                1 O          2 C          3 C          4 C          5 H     

   1 O       0.0000000    2.4764119 *  1.4337361 *  3.8359008    2.6731344 *
   2 C       2.4764119 *  0.0000000    1.5471329 *  1.5376931 *  1.0863927 *
   3 C       1.4337361 *  1.5471329 *  0.0000000    2.5633272 *  2.1391824 *
   4 C       3.8359008    1.5376931 *  2.5633272 *  0.0000000    2.1611492 *
   5 H       2.6731344 *  1.0863927 *  2.1391824 *  2.1611492 *  0.0000000  
   6 H       2.7278714 *  1.0839846 *  2.1547068 *  2.1616338 *  1.7643904 *
   7 H       2.0336997 *  2.1672371 *  1.0866182 *  2.7900528 *  2.4734810 *
   8 H       2.1163795 *  2.1619259 *  1.1005344 *  2.7709842 *  3.0408355  
   9 H       4.1202139    2.1674728 *  2.8053064 *  1.0842879 *  2.4971090 *
  10 H       4.6346511    2.1681190 *  3.5014145    1.0843208 *  2.5005036 *
  11 H       4.1523145    2.1671429 *  2.8109276 *  1.0841662 *  3.0590918  
  12 H       0.9914474 *  2.5699669 *  1.9098478 *  3.9945341    2.8990779 *

                6 H          7 H          8 H          9 H         10 H     

   1 O       2.7278714 *  2.0336997 *  2.1163795 *  4.1202139    4.6346511  
   2 C       1.0839846 *  2.1672371 *  2.1619259 *  2.1674728 *  2.1681190 *
   3 C       2.1547068 *  1.0866182 *  1.1005344 *  2.8053064 *  3.5014145  
   4 C       2.1616338 *  2.7900528 *  2.7709842 *  1.0842879 *  1.0843208 *
   5 H       1.7643904 *  2.4734810 *  3.0408355    2.4971090 *  2.5005036 *
   6 H       0.0000000    3.0498345    2.4937071 *  3.0588584    2.4953017 *
   7 H       3.0498345    0.0000000    1.7605786 *  2.5938459 *  3.7801106  
   8 H       2.4937071 *  1.7605786 *  0.0000000    3.1133478    3.7643877  
   9 H       3.0588584    2.5938459 *  3.1133478    0.0000000    1.7624289 *
  10 H       2.4953017 *  3.7801106    3.7643877    1.7624289 *  0.0000000  
  11 H       2.5048132 *  3.1383572    2.5735446 *  1.7584612 *  1.7622521 *
  12 H       2.4026994 *  2.8064311 *  2.3089490 *  4.5119510    4.6815007  

               11 H         12 H     

   1 O       4.1523145    0.9914474 *
   2 C       2.1671429 *  2.5699669 *
   3 C       2.8109276 *  1.9098478 *
   4 C       1.0841662 *  3.9945341  
   5 H       3.0590918    2.8990779 *
   6 H       2.5048132 *  2.4026994 *
   7 H       3.1383572    2.8064311 *
   8 H       2.5735446 *  2.3089490 *
   9 H       1.7584612 *  4.5119510  
  10 H       1.7622521 *  4.6815007  
  11 H       0.0000000    4.2095945  
  12 H       4.2095945    0.0000000  

  * ... LESS THAN  3.000

 ...... END OF ONE-ELECTRON INTEGRALS ......
 STEP CPU TIME =     0.00 TOTAL CPU TIME =          0.2 (      0.0 MIN)
 TOTAL WALL CLOCK TIME=          0.3 SECONDS, CPU UTILIZATION IS    69.23%
 TOTAL NUMBER OF NONZERO TWO-ELECTRON INTEGRALS =               77240
          6 INTEGRAL RECORDS WERE STORED ON DISK FILE  8.
  ...... END OF TWO-ELECTRON INTEGRALS .....
 STEP CPU TIME =     0.03 TOTAL CPU TIME =          0.2 (      0.0 MIN)
 TOTAL WALL CLOCK TIME=          0.3 SECONDS, CPU UTILIZATION IS    75.00%

          --------------------------
                 RHF SCF CALCULATION
          --------------------------
     DENSITY MATRIX CONV=  5.00E-05

 ITER EX DEM     TOTAL ENERGY        E CHANGE  DENSITY CHANGE     ORB. GRAD
          ---------------START SECOND ORDER SCF---------------
   1  0  0     -190.7113780348  -190.7113780348   0.027553379   0.008760934
   2  1  0     -190.7125751841    -0.0011971493   0.017554932   0.002670673
   3  2  0     -190.7127709090    -0.0001957249   0.001598022   0.000667272
   4  3  0     -190.7127766682    -0.0000057592   0.000633425   0.000149936
   5  4  0     -190.7127772860    -0.0000006179   0.000062801   0.000034338
   6  5  0     -190.7127772989    -0.0000000129   0.000038352   0.000012895
   7  6  0     -190.7127773009    -0.0000000020   0.000005230   0.000001758

          -----------------
          DENSITY CONVERGED
          -----------------
     TIME TO FORM FOCK OPERATORS=       0.0 SECONDS (       0.0 SEC/ITER)
     TIME TO SOLVE SCF EQUATIONS=       0.0 SECONDS (       0.0 SEC/ITER)

 FINAL RHF ENERGY IS     -190.7127773009 AFTER   7 ITERATIONS
 ...... END OF RHF CALCULATION ......
 STEP CPU TIME =     0.00 TOTAL CPU TIME =          0.2 (      0.0 MIN)
 TOTAL WALL CLOCK TIME=          0.3 SECONDS, CPU UTILIZATION IS    75.00%
 ..... END OF 1-ELECTRON GRADIENT ......
 STEP CPU TIME =     0.01 TOTAL CPU TIME =          0.2 (      0.0 MIN)
 TOTAL WALL CLOCK TIME=          0.3 SECONDS, CPU UTILIZATION IS    75.86%
 ...... END OF 2-ELECTRON GRADIENT ......
 STEP CPU TIME =     0.03 TOTAL CPU TIME =          0.3 (      0.0 MIN)
 TOTAL WALL CLOCK TIME=          0.3 SECONDS, CPU UTILIZATION IS    78.13%

          NSERCH=  2     ENERGY=    -190.7127773

                                 -----------------------
                                 GRADIENT (HARTREE/BOHR)
                                 -----------------------
        ATOM     ZNUC       DE/DX         DE/DY         DE/DZ
 --------------------------------------------------------------
    1  O            8.0     0.0026349    -0.0015081    -0.0053788
    2  C            6.0    -0.0014738    -0.0033755     0.0069161
    3  C            6.0     0.0037444    -0.0023496    -0.0053156
    4  C            6.0    -0.0028578     0.0001503    -0.0006987
    5  H            1.0     0.0017453     0.0045798    -0.0011488
    6  H            1.0     0.0006762     0.0044890    -0.0020031
    7  H            1.0     0.0003598    -0.0033860     0.0050694
    8  H            1.0    -0.0048975     0.0013896     0.0018891
    9  H            1.0     0.0013207    -0.0006632     0.0010564
   10  H            1.0     0.0015377     0.0000808    -0.0000108
   11  H            1.0     0.0016840    -0.0010026    -0.0012006
   12  H            1.0    -0.0044739     0.0015955     0.0008255

          MAXIMUM GRADIENT = 0.0069161    RMS GRADIENT = 0.0029200

 NSERCH:   2  E=     -190.7127773009  GRAD. MAX=  0.0069161  R.M.S.=  0.0029200

          HESSIAN UPDATED USING THE BFGS FORMULA
             ACTUAL ENERGY CHANGE WAS  -0.0070015810
          PREDICTED ENERGY CHANGE WAS  -0.0073765244 RATIO=  0.949
          MIN SEARCH, CORRECT HESSIAN, TRYING PURE NR STEP
               NR STEP HAS LENGTH         =   0.156275
          RADIUS OF STEP TAKEN=   0.15628  CURRENT TRUST RADIUS=   0.30000

 BEGINNING GEOMETRY SEARCH POINT NSERCH=   3 ...

 COORDINATES OF ALL ATOMS ARE (ANGS)
   ATOM   CHARGE       X              Y              Z
 ------------------------------------------------------------
 O           8.0   1.9034821304  -0.1119835032  -0.0129278247
 C           6.0  -0.5391262142  -0.5248816176  -0.0079112564
 C           6.0   0.6093738545   0.5044441211   0.0256533080
 C           6.0  -1.9170465131   0.1540008397  -0.0027462399
 H           1.0  -0.4372102299  -1.1935804722  -0.8552933960
 H           1.0  -0.4551990479  -1.1674979561   0.8728599417
 H           1.0   0.5475187870   1.1224338172  -0.8773159861
 H           1.0   0.5298905665   1.1669890457   0.8911688805
 H           1.0  -2.0337895900   0.7764146735  -0.8853136342
 H           1.0  -2.7164370465  -0.5822297157  -0.0092175297
 H           1.0  -2.0488809396   0.7798563848   0.8746221597
 H           1.0   1.9180142429  -0.6899556171   0.7899315771

          INTERNUCLEAR DISTANCES (ANGS.)
          ------------------------------

                1 O          2 C          3 C          4 C          5 H     

   1 O       0.0000000    2.4772657 *  1.4339413 *  3.8297899    2.7126136 *
   2 C       2.4772657 *  0.0000000    1.5426245 *  1.5360900 *  1.0842516 *
   3 C       1.4339413 *  1.5426245 *  0.0000000    2.5507679 *  2.1805258 *
   4 C       3.8297899    1.5360900 *  2.5507679 *  0.0000000    2.1754833 *
   5 H       2.7126136 *  1.0842516 *  2.1805258 *  2.1754833 *  0.0000000  
   6 H       2.7316859 *  1.0935069 *  2.1555660 *  2.1563959 *  1.7284438 *
   7 H       2.0272123 *  2.1564578 *  1.0959429 *  2.7886945 *  2.5167635 *
   8 H       2.0832464 *  2.1939846 *  1.0928864 *  2.7951262 *  3.0915535  
   9 H       4.1294572    2.1673084 *  2.8089396 *  1.0862565 *  2.5359116 *
  10 H       4.6437914    2.1780663 *  3.4990133    1.0867854 *  2.5068843 *
  11 H       4.1478063    2.1818721 *  2.8040896 *  1.0857490 *  3.0796986  
  12 H       0.9893665 *  2.5886950 *  1.9295729 *  4.0060319    2.9167594 *

                6 H          7 H          8 H          9 H         10 H     

   1 O       2.7316859 *  2.0272123 *  2.0832464 *  4.1294572    4.6437914  
   2 C       1.0935069 *  2.1564578 *  2.1939846 *  2.1673084 *  2.1780663 *
   3 C       2.1555660 *  1.0959429 *  1.0928864 *  2.8089396 *  3.4990133  
   4 C       2.1563959 *  2.7886945 *  2.7951262 *  1.0862565 *  1.0867854 *
   5 H       1.7284438 *  2.5167635 *  3.0915535    2.5359116 *  2.5068843 *
   6 H       0.0000000    3.0516137    2.5338836 *  3.0597253    2.4967573 *
   7 H       3.0516137    0.0000000    1.7691339 *  2.6044090 *  3.7832368  
   8 H       2.5338836 *  1.7691339 *  0.0000000    3.1433890    3.7959327  
   9 H       3.0597253    2.6044090 *  3.1433890    0.0000000    1.7548409 *
  10 H       2.4967573 *  3.7832368    3.7959327    1.7548409 *  0.0000000  
  11 H       2.5163493 *  3.1508631    2.6077208 *  1.7600039 *  1.7555860 *
  12 H       2.4222025 *  2.8182845 *  2.3206421 *  4.5357956    4.7040815  

               11 H         12 H     

   1 O       4.1478063    0.9893665 *
   2 C       2.1818721 *  2.5886950 *
   3 C       2.8040896 *  1.9295729 *
   4 C       1.0857490 *  4.0060319  
   5 H       3.0796986    2.9167594 *
   6 H       2.5163493 *  2.4222025 *
   7 H       3.1508631    2.8182845 *
   8 H       2.6077208 *  2.3206421 *
   9 H       1.7600039 *  4.5357956  
  10 H       1.7555860 *  4.7040815  
  11 H       0.0000000    4.2312855  
  12 H       4.2312855    0.0000000  

  * ... LESS THAN  3.000

 ...... END OF ONE-ELECTRON INTEGRALS ......
 STEP CPU TIME =     0.00 TOTAL CPU TIME =          0.3 (      0.0 MIN)
 TOTAL WALL CLOCK TIME=          0.3 SECONDS, CPU UTILIZATION IS    78.13%
 TOTAL NUMBER OF NONZERO TWO-ELECTRON INTEGRALS =               76978
          6 INTEGRAL RECORDS WERE STORED ON DISK FILE  8.
  ...... END OF TWO-ELECTRON INTEGRALS .....
 STEP CPU TIME =     0.02 TOTAL CPU TIME =          0.3 (      0.0 MIN)
 TOTAL WALL CLOCK TIME=          0.3 SECONDS, CPU UTILIZATION IS    79.41%

          --------------------------
                 RHF SCF CALCULATION
          --------------------------
     DENSITY MATRIX CONV=  1.00E-05

 ITER EX DEM     TOTAL ENERGY        E CHANGE  DENSITY CHANGE     ORB. GRAD
          ---------------START SECOND ORDER SCF---------------
   1  0  0     -190.7118575165  -190.7118575165   0.015360145   0.004812670
   2  1  0     -190.7123298102    -0.0004722937   0.011187779   0.002597080
   3  2  0     -190.7124200221    -0.0000902119   0.001496623   0.000449445
   4  3  0     -190.7124223989    -0.0000023768   0.000483919   0.000149926
   5  4  0     -190.7124227535    -0.0000003546   0.000046673   0.000015611
   6  5  0     -190.7124227581    -0.0000000045   0.000020670   0.000004189
   7  6  0     -190.7124227585    -0.0000000004   0.000002883   0.000000458
   8  7  0     -190.7124227585    -0.0000000000   0.000000613   0.000000137

          -----------------
          DENSITY CONVERGED
          -----------------
     TIME TO FORM FOCK OPERATORS=       0.0 SECONDS (       0.0 SEC/ITER)
     TIME TO SOLVE SCF EQUATIONS=       0.0 SECONDS (       0.0 SEC/ITER)

 FINAL RHF ENERGY IS     -190.7124227585 AFTER   8 ITERATIONS
 ...... END OF RHF CALCULATION ......
 STEP CPU TIME =     0.00 TOTAL CPU TIME =          0.3 (      0.0 MIN)
 TOTAL WALL CLOCK TIME=          0.3 SECONDS, CPU UTILIZATION IS    77.14%
 ..... END OF 1-ELECTRON GRADIENT ......
 STEP CPU TIME =     0.01 TOTAL CPU TIME =          0.3 (      0.0 MIN)
 TOTAL WALL CLOCK TIME=          0.4 SECONDS, CPU UTILIZATION IS    77.78%
 ...... END OF 2-ELECTRON GRADIENT ......
 STEP CPU TIME =     0.03 TOTAL CPU TIME =          0.3 (      0.0 MIN)
 TOTAL WALL CLOCK TIME=          0.4 SECONDS, CPU UTILIZATION IS    79.49%

          NSERCH=  3     ENERGY=    -190.7124228

                                 -----------------------
                                 GRADIENT (HARTREE/BOHR)
                                 -----------------------
        ATOM     ZNUC       DE/DX         DE/DY         DE/DZ
 --------------------------------------------------------------
    1  O            8.0    -0.0022204     0.0000888     0.0018898
    2  C            6.0     0.0039601     0.0085631    -0.0203238
    3  C            6.0    -0.0091358     0.0005261     0.0146193
    4  C            6.0     0.0058095    -0.0003047     0.0052498
    5  H            1.0    -0.0012556    -0.0039851     0.0072289
    6  H            1.0     0.0010738    -0.0033192     0.0007888
    7  H            1.0    -0.0003182    -0.0016073    -0.0031073
    8  H            1.0     0.0055252    -0.0006919    -0.0031851
    9  H            1.0     0.0003067    -0.0008654    -0.0005291
   10  H            1.0    -0.0015797     0.0006986    -0.0001696
   11  H            1.0    -0.0020264    -0.0001057    -0.0003824
   12  H            1.0    -0.0001394     0.0010027    -0.0020794

          MAXIMUM GRADIENT = 0.0203238    RMS GRADIENT = 0.0053208

 NSERCH:   3  E=     -190.7124227585  GRAD. MAX=  0.0203238  R.M.S.=  0.0053208

          HESSIAN UPDATED USING THE BFGS FORMULA
             ACTUAL ENERGY CHANGE WAS   0.0003545424
          PREDICTED ENERGY CHANGE WAS  -0.0009266215 RATIO= -0.383
          MIN SEARCH, CORRECT HESSIAN, TRYING PURE NR STEP
               NR STEP HAS LENGTH         =   0.087206
          TRIM/QA LAMBDA FOR NON-TS MODES =  -0.01704967
          TRIM/QA STEP HAS LENGTH         =   0.078138
          RADIUS OF STEP TAKEN=   0.07814  CURRENT TRUST RADIUS=   0.07814

 BEGINNING GEOMETRY SEARCH POINT NSERCH=   4 ...

 COORDINATES OF ALL ATOMS ARE (ANGS)
   ATOM   CHARGE       X              Y              Z
 ------------------------------------------------------------
 O           8.0   1.9108445800  -0.1144077162  -0.0154137645
 C           6.0  -0.5415160090  -0.5301410212   0.0103186905
 C           6.0   0.6151971044   0.4967913549   0.0133931989
 C           6.0  -1.9201818600   0.1528851930  -0.0081763099
 H           1.0  -0.4383604332  -1.1742014570  -0.8614569495
 H           1.0  -0.4568574493  -1.1689759327   0.8869940011
 H           1.0   0.5464001773   1.1313204228  -0.8760462701
 H           1.0   0.5200384546   1.1583031366   0.8842086984
 H           1.0  -2.0342179657   0.7801403439  -0.8860960040
 H           1.0  -2.7150739479  -0.5865951133  -0.0092446628
 H           1.0  -2.0460666401   0.7792587372   0.8715225610
 H           1.0   1.9203839888  -0.6903679481   0.7935068109

          INTERNUCLEAR DISTANCES (ANGS.)
          ------------------------------

                1 O          2 C          3 C          4 C          5 H     

   1 O       0.0000000    2.4874824 *  1.4328631 *  3.8403465    2.7125110 *
   2 C       2.4874824 *  0.0000000    1.5467982 *  1.5386963 *  1.0887827 *
   3 C       1.4328631 *  1.5467982 *  0.0000000    2.5586878 *  2.1604544 *
   4 C       3.8403465    1.5386963 *  2.5586878 *  0.0000000    2.1644957 *
   5 H       2.7125110 *  1.0887827 *  2.1604544 *  2.1644957 *  0.0000000  
   6 H       2.7445340 *  1.0880426 *  2.1650081 *  2.1656327 *  1.7485566 *
   7 H       2.0381942 *  2.1747778 *  1.0947432 *  2.7918741 *  2.5070695 *
   8 H       2.0888885 *  2.1774814 *  1.0977125 *  2.7860171 *  3.0669944  
   9 H       4.1378524    2.1791181 *  2.8122531 *  1.0849867 *  2.5232559 *
  10 H       4.6499593    2.1743790 *  3.5021342    1.0856729 *  2.5009941 *
  11 H       4.1524020    2.1725267 *  2.8104268 *  1.0872262 *  3.0665851  
  12 H       0.9930628 *  2.5884373 *  1.9291027 *  4.0129438    2.9217589 *

                6 H          7 H          8 H          9 H         10 H     

   1 O       2.7445340 *  2.0381942 *  2.0888885 *  4.1378524    4.6499593  
   2 C       1.0880426 *  2.1747778 *  2.1774814 *  2.1791181 *  2.1743790 *
   3 C       2.1650081 *  1.0947432 *  1.0977125 *  2.8122531 *  3.5021342  
   4 C       2.1656327 *  2.7918741 *  2.7860171 *  1.0849867 *  1.0856729 *
   5 H       1.7485566 *  2.5070695 *  3.0669944    2.5232559 *  2.5009941 *
   6 H       0.0000000    3.0669529    2.5239971 *  3.0709882    2.4983901 *
   7 H       3.0669529    0.0000000    1.7606591 *  2.6044229 *  3.7867918  
   8 H       2.5239971 *  1.7606591 *  0.0000000    3.1306887    3.7827082  
   9 H       3.0709882    2.6044229 *  3.1306887    0.0000000    1.7607950 *
  10 H       2.4983901 *  3.7867918    3.7827082    1.7607950 *  0.0000000  
  11 H       2.5142481 *  3.1462404    2.5939798 *  1.7576587 *  1.7575205 *
  12 H       2.4267431 *  2.8273287 *  2.3209436 *  4.5411823    4.7055976  

               11 H         12 H     

   1 O       4.1524020    0.9930628 *
   2 C       2.1725267 *  2.5884373 *
   3 C       2.8104268 *  1.9291027 *
   4 C       1.0872262 *  4.0129438  
   5 H       3.0665851    2.9217589 *
   6 H       2.5142481 *  2.4267431 *
   7 H       3.1462404    2.8273287 *
   8 H       2.5939798 *  2.3209436 *
   9 H       1.7576587 *  4.5411823  
  10 H       1.7575205 *  4.7055976  
  11 H       0.0000000    4.2306760  
  12 H       4.2306760    0.0000000  

  * ... LESS THAN  3.000

 ...... END OF ONE-ELECTRON INTEGRALS ......
 STEP CPU TIME =     0.00 TOTAL CPU TIME =          0.3 (      0.0 MIN)
 TOTAL WALL CLOCK TIME=          0.4 SECONDS, CPU UTILIZATION IS    79.49%
 TOTAL NUMBER OF NONZERO TWO-ELECTRON INTEGRALS =               76935
          6 INTEGRAL RECORDS WERE STORED ON DISK FILE  8.
  ...... END OF TWO-ELECTRON INTEGRALS .....
 STEP CPU TIME =     0.02 TOTAL CPU TIME =          0.3 (      0.0 MIN)
 TOTAL WALL CLOCK TIME=          0.4 SECONDS, CPU UTILIZATION IS    80.49%

          --------------------------
                 RHF SCF CALCULATION
          --------------------------
     DENSITY MATRIX CONV=  5.00E-05

 ITER EX DEM     TOTAL ENERGY        E CHANGE  DENSITY CHANGE     ORB. GRAD
          ---------------START SECOND ORDER SCF---------------
   1  0  0     -190.7131123356  -190.7131123356   0.006442209   0.002372672
   2  1  0     -190.7132198470    -0.0001075114   0.002178073   0.000569633
   3  2  0     -190.7132302718    -0.0000104248   0.000509315   0.000103590
   4  3  0     -190.7132306172    -0.0000003455   0.000350197   0.000044637
   5  4  0     -190.7132306913    -0.0000000740   0.000022127   0.000005674
   6  5  0     -190.7132306923    -0.0000000011   0.000012511   0.000002254
   7  6  0     -190.7132306925    -0.0000000001   0.000000938   0.000000313

          -----------------
          DENSITY CONVERGED
          -----------------
     TIME TO FORM FOCK OPERATORS=       0.0 SECONDS (       0.0 SEC/ITER)
     TIME TO SOLVE SCF EQUATIONS=       0.0 SECONDS (       0.0 SEC/ITER)

 FINAL RHF ENERGY IS     -190.7132306925 AFTER   7 ITERATIONS
 ...... END OF RHF CALCULATION ......
 STEP CPU TIME =     0.00 TOTAL CPU TIME =          0.3 (      0.0 MIN)
 TOTAL WALL CLOCK TIME=          0.4 SECONDS, CPU UTILIZATION IS    80.49%
 ..... END OF 1-ELECTRON GRADIENT ......
 STEP CPU TIME =     0.01 TOTAL CPU TIME =          0.3 (      0.0 MIN)
 TOTAL WALL CLOCK TIME=          0.4 SECONDS, CPU UTILIZATION IS    80.95%
 ...... END OF 2-ELECTRON GRADIENT ......
 STEP CPU TIME =     0.03 TOTAL CPU TIME =          0.4 (      0.0 MIN)
 TOTAL WALL CLOCK TIME=          0.5 SECONDS, CPU UTILIZATION IS    82.22%

          NSERCH=  4     ENERGY=    -190.7132307

                                 -----------------------
                                 GRADIENT (HARTREE/BOHR)
                                 -----------------------
        ATOM     ZNUC       DE/DX         DE/DY         DE/DZ
 --------------------------------------------------------------
    1  O            8.0    -0.0014759     0.0027078    -0.0004820
    2  C            6.0     0.0009744     0.0024491     0.0034192
    3  C            6.0    -0.0020842    -0.0046177    -0.0011672
    4  C            6.0     0.0014685    -0.0010615    -0.0041803
    5  H            1.0    -0.0000428    -0.0006881     0.0000765
    6  H            1.0     0.0007210    -0.0003901    -0.0015528
    7  H            1.0    -0.0002229     0.0016176    -0.0001252
    8  H            1.0     0.0016360     0.0006809    -0.0003651
    9  H            1.0    -0.0005319     0.0002095     0.0012032
   10  H            1.0    -0.0001468     0.0004029     0.0006312
   11  H            1.0     0.0000028     0.0002914     0.0007880
   12  H            1.0    -0.0002982    -0.0016018     0.0017545

          MAXIMUM GRADIENT = 0.0046177    RMS GRADIENT = 0.0016200

 NSERCH:   4  E=     -190.7132306925  GRAD. MAX=  0.0046177  R.M.S.=  0.0016200

          HESSIAN UPDATED USING THE BFGS FORMULA
             ACTUAL ENERGY CHANGE WAS  -0.0008079340
[...]
    2  O  1  S    0.093952  -0.214958  -0.153562  -0.068613  -0.039500
    3  O  1  X   -0.105709  -0.395495  -0.015369   0.109391  -0.196499
    4  O  1  Y   -0.082549  -0.049850  -0.387139   0.105512   0.118414
    5  O  1  Z   -0.245823   0.055806   0.087957   0.182331   0.064802
    6  C  2  S   -0.006780   0.021837   0.019184   0.010737  -0.012697
    7  C  2  S    0.027620  -0.078719  -0.069629  -0.050915   0.056014
    8  C  2  X    0.132686   0.317362   0.171160   0.110665  -0.152400
    9  C  2  Y    0.145136  -0.070687   0.045459  -0.351332   0.225157
   10  C  2  Z    0.151543  -0.034654  -0.063619  -0.241345  -0.329292
   11  C  3  S    0.006296  -0.031255  -0.027035   0.012314  -0.007350
   12  C  3  S   -0.009140   0.132200   0.080122  -0.060409   0.048657
   13  C  3  X   -0.050613   0.100694  -0.226901   0.086944   0.093021
   14  C  3  Y   -0.241840  -0.354256  -0.032552   0.201672  -0.176763
   15  C  3  Z   -0.195763   0.173386  -0.207772   0.018275   0.185194
   16  C  4  S   -0.002579  -0.001768   0.005000   0.014530  -0.015462
   17  C  4  S    0.009548  -0.000076  -0.019943  -0.061201   0.063615
   18  C  4  X    0.101698  -0.281273  -0.276222  -0.143659   0.197575
   19  C  4  Y    0.289510   0.123832  -0.219201   0.303667  -0.167717
   20  C  4  Z    0.274434  -0.173487   0.210676   0.217182   0.234679
   21  H  5  S   -0.154572   0.050398   0.006518   0.390696   0.148956
   22  H  6  S    0.050663  -0.004955  -0.090878  -0.003921  -0.411649
   23  H  7  S    0.005568  -0.248991   0.203392   0.075544  -0.261147
   24  H  8  S   -0.247082  -0.017526  -0.104864   0.108780   0.053246
   25  H  9  S   -0.057350   0.209726  -0.262807  -0.018595  -0.299092
   26  H 10  S   -0.234974   0.107422   0.328554  -0.135029   0.000098
   27  H 11  S    0.329020  -0.034372   0.057863   0.354525   0.107220
   28  H 12  S   -0.124545  -0.026609   0.246062   0.084658  -0.070731

                     16         17         18         19         20
                   -0.4007    -0.3475     0.5602     0.5998     0.6246
                     A          A          A          A          A   
    1  O  1  S    0.072218   0.005900  -0.107964   0.024256  -0.021430
    2  O  1  S   -0.380664  -0.032786   0.675643  -0.166872   0.138073
    3  O  1  X   -0.405329  -0.389383  -0.521389  -0.211966   0.010436
    4  O  1  Y    0.059201  -0.669563  -0.031350   0.232993   0.014983
    5  O  1  Z    0.504225  -0.398576   0.386950  -0.258730   0.174175
    6  C  2  S    0.007951   0.026071  -0.025722  -0.024851   0.029943
    7  C  2  S   -0.029895  -0.110846   0.125613   0.124931  -0.161032
    8  C  2  X   -0.219313  -0.238525  -0.277859   0.138445  -0.365034
    9  C  2  Y   -0.046732  -0.186447   0.239128   0.460297  -0.434910
   10  C  2  Z    0.083520  -0.022517   0.065338  -0.406372  -0.476297
   11  C  3  S   -0.006979   0.006954   0.049149   0.052044  -0.047239
   12  C  3  S    0.032904  -0.034290  -0.211129  -0.278359   0.271507
   13  C  3  X    0.278477   0.132832  -0.556071   0.120816  -0.431205
   14  C  3  Y   -0.000038   0.167939   0.422306   0.402297  -0.371189
   15  C  3  Z   -0.218678   0.083120   0.064171  -0.449795  -0.334266
   16  C  4  S   -0.013589  -0.007541   0.058874   0.017564   0.009747
   17  C  4  S    0.054348   0.030960  -0.331303  -0.100602  -0.056687
   18  C  4  X    0.183167   0.119200  -0.284387   0.004387  -0.185572
   19  C  4  Y   -0.007065   0.012606   0.267848   0.312934  -0.332194
   20  C  4  Z   -0.007397  -0.003708   0.028306  -0.250543  -0.358362
   21  H  5  S   -0.096030   0.083090   0.205749  -0.172495  -0.574520
   22  H  6  S    0.090419   0.029488   0.103501   0.556401   0.288648
   23  H  7  S    0.221024   0.011541  -0.066153  -0.492593  -0.225242
   24  H  8  S   -0.245552   0.249133  -0.184597   0.289046   0.338930
   25  H  9  S    0.021425   0.020058  -0.003613  -0.372771  -0.098599
   26  H 10  S   -0.120546  -0.105481   0.158939   0.311798  -0.382455
   27  H 11  S   -0.016001   0.021958  -0.066058   0.064776   0.528529
   28  H 12  S    0.248817   0.016366  -0.577876   0.501756  -0.196134

                     21         22         23         24         25
                    0.6667     0.6948     0.7160     0.7426     0.7493
                     A          A          A          A          A   
    1  O  1  S   -0.044691   0.021577  -0.014099  -0.010169  -0.018900
    2  O  1  S    0.297830  -0.127405   0.095478   0.054013   0.114944
    3  O  1  X    0.082541   0.259620   0.022475  -0.172966  -0.331747
    4  O  1  Y   -0.324501  -0.280962  -0.156320   0.130898   0.177985
    5  O  1  Z    0.399019   0.028709   0.233340  -0.079924  -0.148863
    6  C  2  S    0.014372  -0.122921  -0.117641  -0.126191  -0.026244
    7  C  2  S   -0.087117   0.754297   0.733539   0.758622   0.179957
    8  C  2  X    0.643969  -0.186730   0.253719   0.003699   0.639085
    9  C  2  Y   -0.032701   0.119558  -0.120409   0.326595  -0.273463
   10  C  2  Z   -0.230462  -0.140358   0.018120   0.085782   0.126515
   11  C  3  S    0.068830  -0.078822   0.031564   0.189557   0.008151
   12  C  3  S   -0.422346   0.466340  -0.189612  -1.173221   0.010104
   13  C  3  X    0.313497   0.454674   0.254661   0.215133  -0.253284
   14  C  3  Y    0.013526   0.296633   0.216713  -0.257333   0.691462
   15  C  3  Z    0.061212   0.353583  -0.626365   0.150544   0.148838
   16  C  4  S   -0.041936  -0.025559  -0.050392   0.084785  -0.033744
   17  C  4  S    0.235867   0.187101   0.328881  -0.524055   0.200870
   18  C  4  X    0.593556  -0.582109  -0.273256  -0.388815   0.173867
   19  C  4  Y    0.036982   0.228655  -0.056001  -0.243021  -0.643251
   20  C  4  Z   -0.294949  -0.395332   0.540523  -0.200566  -0.220748
   21  H  5  S   -0.232152  -0.355650  -0.389314  -0.131902  -0.163154
   22  H  6  S    0.206706  -0.125874  -0.389947  -0.260560  -0.341263
   23  H  7  S    0.273921  -0.056487  -0.473132   0.762610  -0.216335
   24  H  8  S    0.186571  -0.602664   0.499178   0.526560  -0.455148
   25  H  9  S   -0.348931  -0.549682   0.317988   0.145497   0.102138
   26  H 10  S    0.354327  -0.314773  -0.344562  -0.165400  -0.373242
   27  H 11  S    0.157321   0.091845  -0.552754   0.447646   0.443890
   28  H 12  S   -0.657706  -0.146052  -0.230635   0.106701   0.224059

                     26         27
                    0.7623     0.7820
                     A          A   
    1  O  1  S    0.016248   0.005945
    2  O  1  S   -0.095225  -0.041297
    3  O  1  X    0.232418  -0.044974
    4  O  1  Y   -0.244184   0.088408
    5  O  1  Z    0.107945  -0.084191
    6  C  2  S   -0.017040  -0.120518
    7  C  2  S    0.085378   0.779251
    8  C  2  X   -0.097208  -0.183562
    9  C  2  Y    0.354070  -0.648329
   10  C  2  Z   -0.119255   0.109103
   11  C  3  S   -0.070662  -0.014327
   12  C  3  S    0.421438   0.103988
   13  C  3  X    0.375154  -0.144637
   14  C  3  Y    0.199268  -0.004101
   15  C  3  Z   -0.084171  -0.028455
   16  C  4  S    0.187471   0.105998
   17  C  4  S   -1.206474  -0.674579
   18  C  4  X    0.115461   0.360664
   19  C  4  Y   -0.389695   0.525844
   20  C  4  Z    0.171420  -0.094328
   21  H  5  S    0.039464  -0.554357
   22  H  6  S    0.212885  -0.705789
   23  H  7  S   -0.365832  -0.052471
   24  H  8  S   -0.224182  -0.025851
   25  H  9  S    0.836378  -0.004512
   26  H 10  S    0.329294   0.824912
   27  H 11  S    0.590522   0.123678
   28  H 12  S   -0.174197   0.154000

     ----------------------------------------------------------------
     PROPERTY VALUES FOR THE RHF   SELF-CONSISTENT FIELD WAVEFUNCTION
     ----------------------------------------------------------------

          -----------------
          ENERGY COMPONENTS
          -----------------

         WAVEFUNCTION NORMALIZATION =       1.0000000000

                ONE ELECTRON ENERGY =    -516.4124820852
                TWO ELECTRON ENERGY =     196.3921907679
           NUCLEAR REPULSION ENERGY =     129.3069564115
                                      ------------------
                       TOTAL ENERGY =    -190.7133349058

 ELECTRON-ELECTRON POTENTIAL ENERGY =     196.3921907679
  NUCLEUS-ELECTRON POTENTIAL ENERGY =    -705.4795288730
   NUCLEUS-NUCLEUS POTENTIAL ENERGY =     129.3069564115
                                      ------------------
             TOTAL POTENTIAL ENERGY =    -379.7803816936
               TOTAL KINETIC ENERGY =     189.0670467878
                 VIRIAL RATIO (V/T) =       2.0087074302

          ---------------------------------------
          MULLIKEN AND LOWDIN POPULATION ANALYSES
          ---------------------------------------

     ATOMIC MULLIKEN POPULATION IN EACH MOLECULAR ORBITAL

                      1          2          3          4          5

                  2.000000   2.000000   2.000000   2.000000   2.000000

    1             2.001148  -0.000367   0.000000  -0.000000   1.506365
    2             0.000002  -0.000686   2.002244   0.000434   0.018975
    3            -0.000525   2.002990  -0.000697   0.000000   0.285477
    4            -0.000000   0.000001   0.000420   2.002549   0.000756
    5            -0.000000   0.000000  -0.000986  -0.000002   0.001145
    6             0.000000   0.000001  -0.000986  -0.000002   0.001113
    7             0.000003  -0.000966   0.000000  -0.000000   0.010281
    8             0.000003  -0.000949  -0.000000  -0.000000   0.010404
    9            -0.000000   0.000000   0.000002  -0.000993   0.000038
   10            -0.000000  -0.000000   0.000002  -0.000993   0.000019
   11            -0.000000   0.000000   0.000002  -0.000993   0.000040
   12            -0.000631  -0.000024  -0.000000  -0.000000   0.165387

                      6          7          8          9         10

                  2.000000   2.000000   2.000000   2.000000   2.000000

    1             0.065537   0.148421   0.093763   0.282729   0.362179
    2             0.719279   0.177200   0.506388   0.329772   0.338961
    3             0.249687   0.522750   0.389413   0.512030   0.237545
    4             0.538998   0.548370   0.218252   0.123328   0.414576
    5             0.084710   0.007513   0.163439   0.148737   0.005140
    6             0.088324   0.007309   0.182011   0.074444   0.158421
    7             0.026058   0.106167   0.130777   0.105385   0.001530
    8             0.026382   0.102888   0.116167   0.216906   0.000000
    9             0.064919   0.105411   0.066427   0.031725   0.155579
   10             0.060164   0.132202   0.030560   0.004040   0.154725
   11             0.065610   0.106064   0.065483   0.053760   0.009866
   12             0.010331   0.035705   0.037319   0.117143   0.161478

                     11         12         13         14         15

                  2.000000   2.000000   2.000000   2.000000   2.000000

    1             0.205573   0.458214   0.400800   0.128673   0.136365
    2             0.199779   0.332224   0.104753   0.527378   0.488266
    3             0.296232   0.490761   0.265102   0.124825   0.178181
    4             0.552827   0.384471   0.494823   0.442758   0.334030
    5             0.069298   0.007153   0.000137   0.371607   0.048836
    6             0.006316   0.000055   0.019834  -0.000068   0.395567
    7            -0.000028   0.169926   0.105511   0.015130   0.163626
    8             0.168553   0.001311   0.026157   0.029619   0.005306
    9             0.009311   0.120082   0.171556   0.000487   0.213700
   10             0.154796   0.032490   0.275371   0.041116  -0.000002
   11             0.300737   0.002710   0.008785   0.303087   0.025022
   12             0.036606   0.000603   0.127171   0.015389   0.011102

                     16         17

                  2.000000   2.000000

    1             1.053689   1.443458
    2             0.140078   0.222196
    3             0.304896   0.136007
    4             0.087496   0.034550
    5             0.019073   0.013339
    6             0.017026   0.001845
    7             0.104529   0.000396
    8             0.127518   0.124011
    9             0.000845   0.000756
   10             0.031941   0.021980
   11             0.000698   0.000947
   12             0.112213   0.000515

               ----- POPULATIONS IN EACH AO -----
                             MULLIKEN      LOWDIN
              1  O  1  S      1.99781     1.99609
              2  O  1  S      1.83831     1.71604
              3  O  1  X      1.36940     1.38957
              4  O  1  Y      1.60846     1.61924
              5  O  1  Z      1.47256     1.48490
              6  C  2  S      1.99207     1.98507
              7  C  2  S      1.18122     1.03043
              8  C  2  X      0.94551     0.98579
              9  C  2  Y      0.97604     1.00841
             10  C  2  Z      1.01241     1.03589
             11  C  3  S      1.99239     1.98480
             12  C  3  S      1.17855     1.04765
             13  C  3  X      0.83902     0.88555
             14  C  3  Y      0.95803     0.98791
             15  C  3  Z      1.02669     1.04665
             16  C  4  S      1.99203     1.98537
             17  C  4  S      1.18344     1.01335
             18  C  4  X      0.97382     1.00819
             19  C  4  Y      1.00901     1.03594
             20  C  4  Z      1.01990     1.04463
             21  H  5  S      0.93914     0.97201
             22  H  6  S      0.95121     0.98118
             23  H  7  S      0.93833     0.97309
             24  H  8  S      0.95428     0.98783
             25  H  9  S      0.93984     0.97061
             26  H 10  S      0.93841     0.96932
             27  H 11  S      0.94182     0.97215
             28  H 12  S      0.83030     0.88234

          ----- MULLIKEN ATOMIC OVERLAP POPULATIONS -----
          (OFF-DIAGONAL ELEMENTS NEED TO BE MULTIPLIED BY 2)

             1           2           3           4           5

    1    7.8210531
    2   -0.0151461   4.7531847
    3    0.2643263   0.3546211   4.7322224
    4    0.0001927   0.3610149  -0.0194933   4.7285165
    5   -0.0003833   0.3835060  -0.0221189  -0.0211561   0.6261654
    6   -0.0007294   0.3822228  -0.0227366  -0.0216619  -0.0238906
    7   -0.0189354  -0.0225048   0.3781948  -0.0016377  -0.0023443
    8   -0.0156375  -0.0258209   0.3747251  -0.0015238   0.0018240
    9    0.0000027  -0.0206170  -0.0019711   0.3846138  -0.0021961
   10   -0.0000036  -0.0196168   0.0011391   0.3849825  -0.0020743
   11    0.0000019  -0.0206871  -0.0020327   0.3843603   0.0018251
   12    0.2518089  -0.0029150  -0.0422018  -0.0000038  -0.0000195

             6           7           8           9          10

    6    0.6402352
    7    0.0017746   0.6241653
    8   -0.0021860  -0.0244343   0.6504255
    9    0.0018454   0.0003194   0.0000131   0.6215684
   10   -0.0021825   0.0000017  -0.0000090  -0.0216685   0.6196137
   11   -0.0021407  -0.0000014   0.0003989  -0.0220664  -0.0217691
   12    0.0006615   0.0037273  -0.0034976   0.0000000  -0.0000001

            11          12

   11    0.6239255
   12    0.0000026   0.6227419

          TOTAL MULLIKEN AND LOWDIN ATOMIC POPULATIONS
       ATOM         MULL.POP.    CHARGE          LOW.POP.     CHARGE
    1 O             8.286550   -0.286550         8.205853   -0.205853
    2 C             6.107242   -0.107242         6.045584   -0.045584
    3 C             5.994674    0.005326         5.952553    0.047447
    4 C             6.178204   -0.178204         6.087474   -0.087474
    5 H             0.939137    0.060863         0.972011    0.027989
    6 H             0.951212    0.048788         0.981180    0.018820
    7 H             0.938325    0.061675         0.973091    0.026909
    8 H             0.954278    0.045722         0.987835    0.012165
    9 H             0.939844    0.060156         0.970607    0.029393
   10 H             0.938413    0.061587         0.969316    0.030684
   11 H             0.941817    0.058183         0.972154    0.027846
   12 H             0.830304    0.169696         0.882343    0.117657

          -------------------------------
          BOND ORDER AND VALENCE ANALYSIS     BOND ORDER THRESHOLD=0.050
          -------------------------------

                   BOND                       BOND                       BOND
  ATOM PAIR DIST  ORDER      ATOM PAIR DIST  ORDER      ATOM PAIR DIST  ORDER
    1   3  1.434  0.988        1  12  0.991  0.950        2   3  1.551  0.979
    2   4  1.540  1.000        2   5  1.088  0.976        2   6  1.089  0.976
    3   7  1.094  0.971        3   8  1.097  0.965        4   9  1.086  0.983
    4  10  1.086  0.983        4  11  1.086  0.983

                       TOTAL       BONDED        FREE
      ATOM            VALENCE     VALENCE     VALENCE
    1 O                 1.994       1.994       0.000
    2 C                 3.966       3.966       0.000
    3 C                 3.931       3.931      -0.000
    4 C                 3.966       3.966      -0.000
    5 H                 0.996       0.996       0.000
    6 H                 0.998       0.998      -0.000
    7 H                 0.996       0.996      -0.000
    8 H                 0.998       0.998       0.000
    9 H                 0.996       0.996      -0.000
   10 H                 0.996       0.996      -0.000
   11 H                 0.997       0.997      -0.000
   12 H                 0.971       0.971      -0.000

          ---------------------
          ELECTROSTATIC MOMENTS
          ---------------------

 POINT   1           X           Y           Z (BOHR)    CHARGE
                 0.114267   -0.009220    0.018454        0.00 (A.U.)
         DX          DY          DZ         /D/  (DEBYE)
    -1.125384   -0.239140    1.031294    1.545071
 ...... END OF PROPERTY EVALUATION ......
 STEP CPU TIME =     0.01 TOTAL CPU TIME =          1.0 (      0.0 MIN)
 TOTAL WALL CLOCK TIME=          1.1 SECONDS, CPU UTILIZATION IS    91.15%
  $VIB   
          IVIB=   0 IATOM=   0 ICOORD=   0 E=     -190.7133349058
  2.139609189E-05-9.924640443E-06 1.194568464E-05-1.630001331E-05-1.630929905E-05
 -2.769264871E-05-7.917280899E-06-1.405210387E-05-8.917903060E-06-1.226631920E-06
  1.311887304E-06 1.018223149E-05 7.696513461E-06 7.544235368E-06 4.387072557E-06
  4.465959341E-06 1.204880276E-06 1.197013671E-05 1.719571711E-05 5.166727148E-06
  2.990896335E-06 1.995533085E-06 8.742225808E-06 7.070043682E-06-4.884718171E-06
  2.686184044E-06-6.121024083E-06-3.082417592E-06 3.022110442E-07 6.626947199E-06
 -1.318258067E-05 1.476170206E-07 2.395925169E-06-6.156168594E-06 1.318007548E-05
 -1.483736176E-05
 -1.125384192E+00-2.391399409E-01 1.031294239E+00
 ......END OF GEOMETRY SEARCH......
 STEP CPU TIME =     0.01 TOTAL CPU TIME =          1.0 (      0.0 MIN)
 TOTAL WALL CLOCK TIME=          1.1 SECONDS, CPU UTILIZATION IS    92.04%
               580000  WORDS OF DYNAMIC MEMORY USED
 EXECUTION OF GAMESS TERMINATED NORMALLY Tue Mar  3 11:34:00 2020
 DDI: 263640 bytes (0.3 MB / 0 MWords) used by master data server.

 ----------------------------------------
 CPU timing information for all processes
 ========================================
 0: 0.986 + 0.60 = 1.46
 1: 0.02 + 0.03 = 0.06
 ----------------------------------------
 ddikick.x: exited gracefully.
unset echo
----- accounting info -----
Files used on the master node Vusals-MacBook-Pro.local were:
-rw-r--r--@ 1 wurthel  staff      759 Mar  3 11:33 .//Propanol_STO-3G.F05
-rw-r--r--  1 wurthel  staff  1080096 Mar  3 11:34 .//Propanol_STO-3G.F08
-rw-r--r--  1 wurthel  staff  1701440 Mar  3 11:34 .//Propanol_STO-3G.F10
-rw-r--r--  1 wurthel  staff   193735 Mar  3 11:34 .//Propanol_STO-3G.dat
-rw-r--r--@ 1 wurthel  staff      759 Mar  3 11:33 .//Propanol_STO-3G.inp
-rw-r--r--  1 wurthel  staff   181302 Mar  3 11:34 .//Propanol_STO-3G.log
ls: No match.
ls: No match.
ls: No match.
Tue Mar  3 11:34:03 MSK 2020
1.054u 0.133s 0:04.49 26.2%	0+0k 0+0io 604pf+0w
