----- GAMESS execution script 'rungms' -----
This job is running on host Vusals-MacBook-Pro.local
under operating system Darwin at Tue Mar 3 11:37:41 MSK 2020
Available scratch disk space (Kbyte units) at beginning of the job is
Filesystem   1024-blocks     Used Available Capacity iused               ifree %iused  Mounted on
/dev/disk1s5   118181844 46593788  69274208    41%  993253 9223372036853782554    0%   /
GAMESS temporary binary files will be written to ./
GAMESS supplementary output files will be written to ./
Copying input file Water_STO-3G.inp to your run's scratch directory...
cp Water_STO-3G.inp .//Water_STO-3G.F05
unset echo
.//ddikick.x .//gamess.30Sep2018R3.x Water_STO-3G -ddi 1 1 Vusals-MacBook-Pro.local -scr ./

 Distributed Data Interface kickoff program.
 Initiating 1 compute processes on 1 nodes to run the following command:
 .//gamess.30Sep2018R3.x Water_STO-3G 

          ******************************************************
          *         GAMESS VERSION = 30 SEP 2018 (R3)         *
          *             FROM IOWA STATE UNIVERSITY             *
          * M.W.SCHMIDT, K.K.BALDRIDGE, J.A.BOATZ, S.T.ELBERT, *
          *   M.S.GORDON, J.H.JENSEN, S.KOSEKI, N.MATSUNAGA,   *
          *          K.A.NGUYEN, S.J.SU, T.L.WINDUS,           *
          *       TOGETHER WITH M.DUPUIS, J.A.MONTGOMERY       *
          *         J.COMPUT.CHEM.  14, 1347-1363(1993)        *
          **************** 64 BIT APPLE VERSION ****************

  SINCE 1993, STUDENTS AND POSTDOCS WORKING AT IOWA STATE UNIVERSITY
  AND ALSO IN THEIR VARIOUS JOBS AFTER LEAVING ISU HAVE MADE IMPORTANT
  CONTRIBUTIONS TO THE CODE:
     IVANA ADAMOVIC, CHRISTINE AIKENS, YURI ALEXEEV, POOJA ARORA,
     ANDREY ASADCHEV, ROB BELL, PRADIPTA BANDYOPADHYAY, JONATHAN BENTZ,
     BRETT BODE, KURT BRORSEN, CALEB CARLIN, GALINA CHABAN, WEI CHEN,
     CHEOL HO CHOI, PAUL DAY, ALBERT DEFUSCO, NUWAN DESILVA, TIM DUDLEY,
     DMITRI FEDOROV, ALEX FINDLATER, GRAHAM FLETCHER, MARK FREITAG,
     KURT GLAESEMANN, ANASTASIA GUNINA,
     DAN KEMP, GRANT MERRILL, NORIYUKI MINEZAWA, JONATHAN MULLIN,
     TAKESHI NAGATA, SEAN NEDD, HEATHER NETZLOFF, BOSILJKA NJEGIC, RYAN OLSON,
     MIKE PAK, BUU PHAM,
     SPENCER PRUITT, LUKE ROSKOP, JIM SHOEMAKER, LYUDMILA SLIPCHENKO,
     TONY SMITH, SAROM SOK LEANG, JIE SONG, TETSUYA TAKETSUGU, SIMON WEBB,
     PENG XU, SOOHAENG YOO, FEDERICO ZAHARIEV

  ADDITIONAL CODE HAS BEEN PROVIDED BY COLLABORATORS IN OTHER GROUPS:
     IOWA STATE UNIVERSITY:
          JOE IVANIC, AARON WEST, LAIMUTIS BYTAUTAS, KLAUS RUEDENBERG
     UNIVERSITY OF TOKYO: KIMIHIKO HIRAO, TAKAHITO NAKAJIMA,
          TAKAO TSUNEDA, MUNEAKI KAMIYA, SUSUMU YANAGISAWA,
          KIYOSHI YAGI, MAHITO CHIBA, SEIKEN TOKURA, NAOAKI KAWAKAMI
     UNIVERSITY OF AARHUS: FRANK JENSEN
     UNIVERSITY OF IOWA: VISVALDAS KAIRYS, HUI LI
     NATIONAL INST. OF STANDARDS AND TECHNOLOGY: WALT STEVENS, DAVID GARMER
     UNIVERSITY OF PISA: BENEDETTA MENNUCCI, JACOPO TOMASI
     UNIVERSITY OF MEMPHIS: HENRY KURTZ, PRAKASHAN KORAMBATH
     UNIVERSITY OF ALBERTA: TOBY ZENG, MARIUSZ KLOBUKOWSKI
     UNIVERSITY OF NEW ENGLAND: MARK SPACKMAN
     MIE UNIVERSITY: HIROAKI UMEDA
     NAT. INST. OF ADVANCED INDUSTRIAL SCIENCE AND TECHNOLOGY: KAZUO KITAURA
     MICHIGAN STATE UNIVERSITY:
          KAROL KOWALSKI, MARTA WLOCH, JEFFREY GOUR, JESSE LUTZ,
          WEI LI, JUN SHEN, J. EMILIANO DEUSTUA, PIOTR PIECUCH
     UNIVERSITY OF MINNESOTA:
          YINAN SHU
     UNIVERSITY OF SILESIA: MONIKA MUSIAL, STANISLAW KUCHARSKI
     FACULTES UNIVERSITAIRES NOTRE-DAME DE LA PAIX:
          OLIVIER QUINET, BENOIT CHAMPAGNE
     UNIVERSITY OF CALIFORNIA - SANTA BARBARA: BERNARD KIRTMAN
     INSTITUTE FOR MOLECULAR SCIENCE:
          KAZUYA ISHIMURA, MICHIO KATOUDA, AND SHIGERU NAGASE
     UNIVERSITY OF NOTRE DAME: ANNA POMOGAEVA, DAN CHIPMAN
     KYUSHU UNIVERSITY:
          HARUYUKI NAKANO,
          FENG LONG GU, JACEK KORCHOWIEC, MARCIN MAKOWSKI, AND YURIKO AOKI,
          HIROTOSHI MORI AND EISAKU MIYOSHI
     PENNSYLVANIA STATE UNIVERSITY:
          TZVETELIN IORDANOV, CHET SWALINA, JONATHAN SKONE,
          SHARON HAMMES-SCHIFFER
     WASEDA UNIVERSITY:
          MASATO KOBAYASHI, TOMOKO AKAMA, TSUGUKI TOUMA,
          TAKESHI YOSHIKAWA, YASUHIRO IKABATA, JUNJI SEINO,
          YUYA NAKAJIMA, HIROMI NAKAI
     NANJING UNIVERSITY: SHUHUA LI
     UNIVERSITY OF NEBRASKA:
          PEIFENG SU, DEJUN SI, NANDUN THELLAMUREGE, YALI WANG, HUI LI
     UNIVERSITY OF ZURICH: ROBERTO PEVERATI, KIM BALDRIDGE
     N. COPERNICUS UNIVERSITY AND JACKSON STATE UNIVERSITY:
          MARIA BARYSZ
     UNIVERSITY OF COPENHAGEN: Jimmy Kromann, CASPER STEINMANN
     TOKYO INSTITUTE OF TECHNOLOGY: HIROYA NAKATA
     NAGOYA UNIVERSITY: YOSHIO NISHIMOTO, STEPHAN IRLE
     MOSCOW STATE UNIVERSITY: VLADIMIR MIRONOV

 EXECUTION OF GAMESS BEGUN Tue Mar  3 11:37:42 2020

            ECHO OF THE FIRST FEW INPUT CARDS -
 INPUT CARD>!   File created by the GAMESS Input Deck Generator Plugin for Avogadro         
 INPUT CARD> $BASIS GBASIS=STO NGAUSS=3 $END                                                
 INPUT CARD> $CONTRL SCFTYP=RHF RUNTYP=OPTIMIZE $END                                        
 INPUT CARD> $STATPT OPTTOL=0.0001 NSTEP=20 $END                                            
 INPUT CARD>                                                                                
 INPUT CARD> $DATA                                                                          
 INPUT CARD>Title                                                                           
 INPUT CARD>C1                                                                              
 INPUT CARD>O     8.0     0.00000     0.00000     0.00000                                   
 INPUT CARD>H     1.0     0.27740     0.89290     0.25440                                   
 INPUT CARD>H     1.0     0.60680    -0.23830    -0.71690                                   
 INPUT CARD> $END                                                                           
    1000000 WORDS OF MEMORY AVAILABLE

     BASIS OPTIONS
     -------------
     GBASIS=STO          IGAUSS=       3      POLAR=NONE    
     NDFUNC=       0     NFFUNC=       0     DIFFSP=       F
     NPFUNC=       0      DIFFS=       F     BASNAM=        


     RUN TITLE
     ---------
 Title                                                                           

 THE POINT GROUP OF THE MOLECULE IS C1      
 THE ORDER OF THE PRINCIPAL AXIS IS     0

 ATOM      ATOMIC                      COORDINATES (BOHR)
           CHARGE         X                   Y                   Z
 O           8.0     0.0000000000        0.0000000000        0.0000000000
 H           1.0     0.5242099890        1.6873363344        0.4807462913
 H           1.0     1.1466857293       -0.4503217029       -1.3547445606

          INTERNUCLEAR DISTANCES (ANGS.)
          ------------------------------

                1 O          2 H          3 H     

   1 O       0.0000000    0.9689894 *  0.9689885 *
   2 H       0.9689894 *  0.0000000    1.5269386 *
   3 H       0.9689885 *  1.5269386 *  0.0000000  

  * ... LESS THAN  3.000


     ATOMIC BASIS SET
     ----------------
 THE CONTRACTED PRIMITIVE FUNCTIONS HAVE BEEN UNNORMALIZED
 THE CONTRACTED BASIS FUNCTIONS ARE NOW NORMALIZED TO UNITY

  SHELL TYPE  PRIMITIVE        EXPONENT          CONTRACTION COEFFICIENT(S)

 O         

      1   S       1           130.7093214    0.154328967295
      1   S       2            23.8088661    0.535328142282
      1   S       3             6.4436083    0.444634542185

      2   L       4             5.0331513   -0.099967229187    0.155916274999
      2   L       5             1.1695961    0.399512826089    0.607683718598
      2   L       6             0.3803890    0.700115468880    0.391957393099

 H         

      3   S       7             3.4252509    0.154328967295
      3   S       8             0.6239137    0.535328142282
      3   S       9             0.1688554    0.444634542185

 H         

      4   S      10             3.4252509    0.154328967295
      4   S      11             0.6239137    0.535328142282
      4   S      12             0.1688554    0.444634542185

 TOTAL NUMBER OF BASIS SET SHELLS             =    4
 NUMBER OF CARTESIAN GAUSSIAN BASIS FUNCTIONS =    7
 NUMBER OF ELECTRONS                          =   10
 CHARGE OF MOLECULE                           =    0
 SPIN MULTIPLICITY                            =    1
 NUMBER OF OCCUPIED ORBITALS (ALPHA)          =    5
 NUMBER OF OCCUPIED ORBITALS (BETA )          =    5
 TOTAL NUMBER OF ATOMS                        =    3
 THE NUCLEAR REPULSION ENERGY IS        9.0843651698

     $CONTRL OPTIONS
     ---------------
 SCFTYP=RHF          RUNTYP=OPTIMIZE     EXETYP=RUN     
 MPLEVL=       0     CITYP =NONE         CCTYP =NONE         VBTYP =NONE    
 DFTTYP=NONE         TDDFT =NONE    
 MULT  =       1     ICHARG=       0     NZVAR =       0     COORD =UNIQUE  
 PP    =NONE         RELWFN=NONE         LOCAL =NONE         NUMGRD=       F
 ISPHER=      -1     NOSYM =       0     MAXIT =      30     UNITS =ANGS    
 PLTORB=       F     MOLPLT=       F     AIMPAC=       F     FRIEND=        
 NPRINT=       7     IREST =       0     GEOM  =INPUT   
 NORMF =       0     NORMP =       0     ITOL  =      20     ICUT  =       9
 INTTYP=BEST         GRDTYP=BEST         QMTTOL= 1.0E-06

     $SYSTEM OPTIONS
     ---------------
  REPLICATED MEMORY=     1000000 WORDS (ON EVERY NODE).
 DISTRIBUTED MEMDDI=           0 MILLION WORDS IN AGGREGATE,
 MEMDDI DISTRIBUTED OVER   1 PROCESSORS IS           0 WORDS/PROCESSOR.
 TOTAL MEMORY REQUESTED ON EACH PROCESSOR=     1000000 WORDS.
 TIMLIM=      525600.00 MINUTES, OR     365.0 DAYS.
 PARALL= F  BALTYP=  DLB     KDIAG=    0  COREFL= F
 MXSEQ2=     300 MXSEQ3=     150  mem10=         0

          ----------------
          PROPERTIES INPUT
          ----------------

     MOMENTS            FIELD           POTENTIAL          DENSITY
 IEMOM =       1   IEFLD =       0   IEPOT =       0   IEDEN =       0
 WHERE =COMASS     WHERE =NUCLEI     WHERE =NUCLEI     WHERE =NUCLEI  
 OUTPUT=BOTH       OUTPUT=BOTH       OUTPUT=BOTH       OUTPUT=BOTH    
 IEMINT=       0   IEFINT=       0                     IEDINT=       0
                                                       MORB  =       0
          EXTRAPOLATION IN EFFECT
 ORBITAL PRINTING OPTION: NPREO=     1     7     2     1

     -------------------------------
     INTEGRAL TRANSFORMATION OPTIONS
     -------------------------------
     NWORD  =            0
     CUTOFF = 1.0E-09     MPTRAN =       0
     DIRTRF =       F     AOINTS =DUP     

          ----------------------
          INTEGRAL INPUT OPTIONS
          ----------------------
 NOPK  =       1 NORDER=       0 SCHWRZ=       F

     ------------------------------------------
     THE POINT GROUP IS C1 , NAXIS= 0, ORDER= 1
     ------------------------------------------

     DIMENSIONS OF THE SYMMETRY SUBSPACES ARE
 A   =    7

 ..... DONE SETTING UP THE RUN .....
 STEP CPU TIME =     0.01 TOTAL CPU TIME =          0.0 (      0.0 MIN)
 TOTAL WALL CLOCK TIME=          0.1 SECONDS, CPU UTILIZATION IS    12.50%


          -----------------------------
          STATIONARY POINT LOCATION RUN
          -----------------------------

 OBTAINING INITIAL HESSIAN, HESS=GUESS   
 CARTESIAN COORDINATE OPTIMIZATION USING BADGER'S RULE FORCE CONSTANT GUESS

          PARAMETERS CONTROLLING GEOMETRY SEARCH ARE
          METHOD =QA                  UPHESS =BFGS    
          NNEG   =         0          NFRZ   =         0
          NSTEP  =        20          IFOLOW =         1
          HESS   =GUESS               RESTAR =         F
          IHREP  =         0          HSSEND =         F
          NPRT   =         0          NPUN   =         0
          OPTTOL = 1.000E-04          RMIN   = 1.500E-03
          RMAX   = 1.000E-01          RLIM   = 7.000E-02
          DXMAX  = 3.000E-01          PURIFY =         F
          MOVIE  =         F          TRUPD  =         T
          TRMAX  = 5.000E-01          TRMIN  = 5.000E-02
          ITBMAT =         5          STPT   =         F
          STSTEP = 1.000E-02          PROJCT=          T

 BEGINNING GEOMETRY SEARCH POINT NSERCH=   0 ...

 COORDINATES OF ALL ATOMS ARE (ANGS)
   ATOM   CHARGE       X              Y              Z
 ------------------------------------------------------------
 O           8.0   0.0000000000   0.0000000000   0.0000000000
 H           1.0   0.2774000000   0.8929000000   0.2544000000
 H           1.0   0.6068000000  -0.2383000000  -0.7169000000

          ********************
          1 ELECTRON INTEGRALS
          ********************
 ...... END OF ONE-ELECTRON INTEGRALS ......
 STEP CPU TIME =     0.00 TOTAL CPU TIME =          0.0 (      0.0 MIN)
 TOTAL WALL CLOCK TIME=          0.1 SECONDS, CPU UTILIZATION IS    12.50%

          -------------
          GUESS OPTIONS
          -------------
          GUESS =HUCKEL            NORB  =       0          NORDER=       0
          MIX   =       F          PRTMO =       F          PUNMO =       F
          TOLZ  = 1.0E-08          TOLE  = 1.0E-05
          SYMDEN=       F          PURIFY=       F

 INITIAL GUESS ORBITALS GENERATED BY HUCKEL   ROUTINE.
 HUCKEL GUESS REQUIRES      2620 WORDS.

 SYMMETRIES FOR INITIAL GUESS ORBITALS FOLLOW.   BOTH SET(S).
     5 ORBITALS ARE OCCUPIED (    1 CORE ORBITALS).
     2=A        3=A        4=A        5=A        6=A        7=A   
 ...... END OF INITIAL ORBITAL SELECTION ......
 STEP CPU TIME =     0.00 TOTAL CPU TIME =          0.0 (      0.0 MIN)
 TOTAL WALL CLOCK TIME=          0.1 SECONDS, CPU UTILIZATION IS    11.11%

                    ----------------------
                    AO INTEGRAL TECHNOLOGY
                    ----------------------
     S,P,L SHELL ROTATED AXIS INTEGRALS, REPROGRAMMED BY
        KAZUYA ISHIMURA (IMS) AND JOSE SIERRA (SYNSTAR).
     S,P,D,L SHELL ROTATED AXIS INTEGRALS PROGRAMMED BY
        KAZUYA ISHIMURA (INSTITUTE FOR MOLECULAR SCIENCE).
     S,P,D,F,G SHELL TO TOTAL QUARTET ANGULAR MOMENTUM SUM 5,
        ERIC PROGRAM BY GRAHAM FLETCHER (ELORET AND NASA ADVANCED
        SUPERCOMPUTING DIVISION, AMES RESEARCH CENTER).
     S,P,D,F,G,L SHELL GENERAL RYS QUADRATURE PROGRAMMED BY
        MICHEL DUPUIS (PACIFIC NORTHWEST NATIONAL LABORATORY).

          --------------------
          2 ELECTRON INTEGRALS
          --------------------

 THE -PK- OPTION IS OFF, THE INTEGRALS ARE NOT IN SUPERMATRIX FORM.
 STORING   15000 INTEGRALS/RECORD ON DISK, USING 12 BYTES/INTEGRAL.
 TWO ELECTRON INTEGRAL EVALUATION REQUIRES   89366 WORDS OF MEMORY.
 II,JST,KST,LST =  1  1  1  1 NREC =         1 INTLOC =    1
 II,JST,KST,LST =  2  1  1  1 NREC =         1 INTLOC =    2
 II,JST,KST,LST =  3  1  1  1 NREC =         1 INTLOC =   34
 II,JST,KST,LST =  4  1  1  1 NREC =         1 INTLOC =  145
 TOTAL NUMBER OF NONZERO TWO-ELECTRON INTEGRALS =                 319
          1 INTEGRAL RECORDS WERE STORED ON DISK FILE  8.
  ...... END OF TWO-ELECTRON INTEGRALS .....
 STEP CPU TIME =     0.03 TOTAL CPU TIME =          0.0 (      0.0 MIN)
 TOTAL WALL CLOCK TIME=          0.1 SECONDS, CPU UTILIZATION IS    40.00%

          --------------------------
                 RHF SCF CALCULATION
          --------------------------

     NUCLEAR ENERGY =         9.0843651698
     MAXIT =   30     NPUNCH=    2
     EXTRAP=T  DAMP=F  SHIFT=F  RSTRCT=F  DIIS=F  DEM=F  SOSCF=F
     DENSITY MATRIX CONV=  1.00E-05
     MEMORY REQUIRED FOR RHF ITERS=     30441 WORDS.

 ITER EX DEM     TOTAL ENERGY        E CHANGE  DENSITY CHANGE    DIIS ERROR
   1  0  0      -74.7974028173   -74.7974028173   0.596790036   0.000000000
   2  1  0      -74.9507512740    -0.1533484567   0.181644154   0.000000000
   3  2  0      -74.9629596976    -0.0122084236   0.059584262   0.000000000
   4  3  0      -74.9642355822    -0.0012758846   0.020209883   0.000000000
   5  4  0      -74.9644116797    -0.0001760975   0.007364132   0.000000000
   6  0  0      -74.9644410203    -0.0000293406   0.004740696   0.000000000
   7  1  0      -74.9644475986    -0.0000065783   0.000070659   0.000000000
   8  2  0      -74.9644476007    -0.0000000021   0.000025521   0.000000000
   9  3  0      -74.9644476010    -0.0000000003   0.000009827   0.000000000
  10  4  0      -74.9644476011    -0.0000000001   0.000003974   0.000000000

          -----------------
          DENSITY CONVERGED
          -----------------
     TIME TO FORM FOCK OPERATORS=       0.0 SECONDS (       0.0 SEC/ITER)
     TIME TO SOLVE SCF EQUATIONS=       0.0 SECONDS (       0.0 SEC/ITER)

 FINAL RHF ENERGY IS      -74.9644476011 AFTER  10 ITERATIONS

          ------------
          EIGENVECTORS
          ------------

                      1          2          3          4          5
                  -20.2439    -1.2631    -0.6109    -0.4529    -0.3909
                     A          A          A          A          A   
    1  O  1  S    0.994159  -0.233211  -0.000000   0.102886  -0.000000
    2  O  1  S    0.026308   0.837725   0.000001  -0.534557  -0.000000
    3  O  1  X    0.003148   0.093407  -0.130906   0.572333   0.636021
    4  O  1  Y    0.002331   0.069152   0.449545   0.423715  -0.387693
    5  O  1  Z   -0.001647  -0.048859   0.386001  -0.299371   0.667212
    6  H  2  S   -0.005837   0.157790   0.446072   0.283106  -0.000000
    7  H  3  S   -0.005837   0.157790  -0.446072   0.283106  -0.000000

                      6          7
                    0.5950     0.7269
                     A          A   
    1  O  1  S   -0.130477   0.000001
    2  O  1  S    0.863132  -0.000004
    3  O  1  X    0.551620  -0.211918
    4  O  1  Y    0.408384   0.727742
    5  O  1  Z   -0.288535   0.624876
    6  H  2  S   -0.788081  -0.828446
    7  H  3  S   -0.788075   0.828453
 ...... END OF RHF CALCULATION ......
 STEP CPU TIME =     0.00 TOTAL CPU TIME =          0.0 (      0.0 MIN)
 TOTAL WALL CLOCK TIME=          0.1 SECONDS, CPU UTILIZATION IS    36.36%

     ----------------------------------------------------------------
     PROPERTY VALUES FOR THE RHF   SELF-CONSISTENT FIELD WAVEFUNCTION
     ----------------------------------------------------------------

          -----------------
          ENERGY COMPONENTS
          -----------------

         WAVEFUNCTION NORMALIZATION =       1.0000000000

                ONE ELECTRON ENERGY =    -122.1743226482
                TWO ELECTRON ENERGY =      38.1255098773
           NUCLEAR REPULSION ENERGY =       9.0843651698
                                      ------------------
                       TOTAL ENERGY =     -74.9644476011

 ELECTRON-ELECTRON POTENTIAL ENERGY =      38.1255098773
  NUCLEUS-ELECTRON POTENTIAL ENERGY =    -196.7360721180
   NUCLEUS-NUCLEUS POTENTIAL ENERGY =       9.0843651698
                                      ------------------
             TOTAL POTENTIAL ENERGY =    -149.5261970709
               TOTAL KINETIC ENERGY =      74.5617494698
                 VIRIAL RATIO (V/T) =       2.0054008675

          ---------------------------------------
          MULLIKEN AND LOWDIN POPULATION ANALYSES
          ---------------------------------------

     ATOMIC MULLIKEN POPULATION IN EACH MOLECULAR ORBITAL

                      1          2          3          4          5

                  2.000000   2.000000   2.000000   2.000000   2.000000

    1             2.001359   1.617480   1.068574   1.667125   2.000000
    2            -0.000680   0.191260   0.465713   0.166438   0.000000
    3            -0.000680   0.191260   0.465713   0.166437   0.000000

               ----- POPULATIONS IN EACH AO -----
                             MULLIKEN      LOWDIN
              1  O  1  S      1.99768     1.99608
              2  O  1  S      1.83424     1.68622
              3  O  1  X      1.65696     1.66533
              4  O  1  Y      1.32455     1.34412
              5  O  1  Z      1.54111     1.55463
              6  H  2  S      0.82273     0.87681
              7  H  3  S      0.82273     0.87681

          ----- MULLIKEN ATOMIC OVERLAP POPULATIONS -----
          (OFF-DIAGONAL ELEMENTS NEED TO BE MULTIPLIED BY 2)

             1           2           3

    1    7.8325348
    2    0.2610017   0.6081221
    3    0.2610018  -0.0463928   0.6081217

          TOTAL MULLIKEN AND LOWDIN ATOMIC POPULATIONS
       ATOM         MULL.POP.    CHARGE          LOW.POP.     CHARGE
    1 O             8.354538   -0.354538         8.246372   -0.246372
    2 H             0.822731    0.177269         0.876814    0.123186
    3 H             0.822731    0.177269         0.876814    0.123186

          -------------------------------
          BOND ORDER AND VALENCE ANALYSIS     BOND ORDER THRESHOLD=0.050
          -------------------------------

                   BOND                       BOND                       BOND
  ATOM PAIR DIST  ORDER      ATOM PAIR DIST  ORDER      ATOM PAIR DIST  ORDER
    1   2  0.969  0.957        1   3  0.969  0.957

                       TOTAL       BONDED        FREE
      ATOM            VALENCE     VALENCE     VALENCE
    1 O                 1.914       1.914      -0.000
    2 H                 0.969       0.969       0.000
    3 H                 0.969       0.969       0.000

          ---------------------
          ELECTROSTATIC MOMENTS
          ---------------------

 POINT   1           X           Y           Z (BOHR)    CHARGE
                 0.093499    0.069220   -0.048907        0.00 (A.U.)
         DX          DY          DZ         /D/  (DEBYE)
     1.269687    0.939987   -0.664138    1.713698
 ...... END OF PROPERTY EVALUATION ......
 STEP CPU TIME =     0.00 TOTAL CPU TIME =          0.0 (      0.0 MIN)
 TOTAL WALL CLOCK TIME=          0.1 SECONDS, CPU UTILIZATION IS    36.36%

 BEGINNING ONE ELECTRON GRADIENT...
 ..... END OF 1-ELECTRON GRADIENT ......
 STEP CPU TIME =     0.00 TOTAL CPU TIME =          0.0 (      0.0 MIN)
 TOTAL WALL CLOCK TIME=          0.1 SECONDS, CPU UTILIZATION IS    36.36%

          ----------------------
          GRADIENT OF THE ENERGY
          ----------------------
 THE COARSE/FINE SCHWARZ SCREENINGS SKIPPED            0/           0 BLOCKS.
 THE NUMBER OF GRADIENT INTEGRAL BLOCKS COMPUTED WAS        47
 ...... END OF 2-ELECTRON GRADIENT ......
 STEP CPU TIME =     0.00 TOTAL CPU TIME =          0.0 (      0.0 MIN)
 TOTAL WALL CLOCK TIME=          0.1 SECONDS, CPU UTILIZATION IS    33.33%

          NSERCH=  0     ENERGY=     -74.9644476

                                 -----------------------
                                 GRADIENT (HARTREE/BOHR)
                                 -----------------------
        ATOM     ZNUC       DE/DX         DE/DY         DE/DZ
 --------------------------------------------------------------
    1  O            8.0     0.0315690     0.0233705    -0.0165134
    2  H            1.0    -0.0131553    -0.0207129     0.0005048
    3  H            1.0    -0.0184137    -0.0026576     0.0160086

          MAXIMUM GRADIENT = 0.0315690    RMS GRADIENT = 0.0183189

 NSERCH:   0  E=      -74.9644476011  GRAD. MAX=  0.0315690  R.M.S.=  0.0183189

          FORCE CONSTANT MATRIX NOT UPDATED --- TAKING FIRST STEP
          MIN SEARCH, CORRECT HESSIAN, TRYING PURE NR STEP
               NR STEP HAS LENGTH         =   0.317662
          TRIM/QA LAMBDA FOR NON-TS MODES =  -0.00444524
          TRIM/QA STEP HAS LENGTH         =   0.300000
          RADIUS OF STEP TAKEN=   0.30000  CURRENT TRUST RADIUS=   0.30000

 BEGINNING GEOMETRY SEARCH POINT NSERCH=   1 ...

 COORDINATES OF ALL ATOMS ARE (ANGS)
   ATOM   CHARGE       X              Y              Z
 ------------------------------------------------------------
 O           8.0  -0.0799362178  -0.0591785628   0.0418127436
 H           1.0   0.3307900178   0.8763959456   0.1939160215
 H           1.0   0.6333462000  -0.1626173828  -0.6982287650

          INTERNUCLEAR DISTANCES (ANGS.)
          ------------------------------

                1 O          2 H          3 H     

   1 O       0.0000000    1.0330204 *  1.0330212 *
   2 H       1.0330204 *  0.0000000    1.4025018 *
   3 H       1.0330212 *  1.4025018 *  0.0000000  

  * ... LESS THAN  3.000

 ...... END OF ONE-ELECTRON INTEGRALS ......
 STEP CPU TIME =     0.00 TOTAL CPU TIME =          0.0 (      0.0 MIN)
 TOTAL WALL CLOCK TIME=          0.1 SECONDS, CPU UTILIZATION IS    33.33%
 TOTAL NUMBER OF NONZERO TWO-ELECTRON INTEGRALS =                 319
          1 INTEGRAL RECORDS WERE STORED ON DISK FILE  8.
  ...... END OF TWO-ELECTRON INTEGRALS .....
 STEP CPU TIME =     0.00 TOTAL CPU TIME =          0.0 (      0.0 MIN)
 TOTAL WALL CLOCK TIME=          0.1 SECONDS, CPU UTILIZATION IS    33.33%

          --------------------------
                 RHF SCF CALCULATION
          --------------------------
     DENSITY MATRIX CONV=  5.00E-05

 ITER EX DEM     TOTAL ENERGY        E CHANGE  DENSITY CHANGE    DIIS ERROR
   1  0  0      -74.9476827421   -74.9476827421   0.069804149   0.000000000
   2  1  0      -74.9525860205    -0.0049032785   0.025506561   0.000000000
   3  2  0      -74.9533422282    -0.0007562077   0.010825251   0.000000000
   4  3  0      -74.9534976148    -0.0001553866   0.005133895   0.000000000
   5  0  0      -74.9535309755    -0.0000333607   0.004530008   0.000000000
   6  1  0      -74.9535402197    -0.0000092442   0.000076500   0.000000000
   7  2  0      -74.9535402223    -0.0000000026   0.000022821   0.000000000
   8  3  0      -74.9535402226    -0.0000000003   0.000007746   0.000000000

          -----------------
          DENSITY CONVERGED
          -----------------
     TIME TO FORM FOCK OPERATORS=       0.0 SECONDS (       0.0 SEC/ITER)
     TIME TO SOLVE SCF EQUATIONS=       0.0 SECONDS (       0.0 SEC/ITER)

 FINAL RHF ENERGY IS      -74.9535402226 AFTER   8 ITERATIONS
 ...... END OF RHF CALCULATION ......
 STEP CPU TIME =     0.00 TOTAL CPU TIME =          0.0 (      0.0 MIN)
 TOTAL WALL CLOCK TIME=          0.1 SECONDS, CPU UTILIZATION IS    33.33%
 ..... END OF 1-ELECTRON GRADIENT ......
 STEP CPU TIME =     0.00 TOTAL CPU TIME =          0.0 (      0.0 MIN)
 TOTAL WALL CLOCK TIME=          0.1 SECONDS, CPU UTILIZATION IS    33.33%
 ...... END OF 2-ELECTRON GRADIENT ......
 STEP CPU TIME =     0.00 TOTAL CPU TIME =          0.0 (      0.0 MIN)
 TOTAL WALL CLOCK TIME=          0.1 SECONDS, CPU UTILIZATION IS    33.33%

          NSERCH=  1     ENERGY=     -74.9535402

                                 -----------------------
                                 GRADIENT (HARTREE/BOHR)
                                 -----------------------
        ATOM     ZNUC       DE/DX         DE/DY         DE/DZ
 --------------------------------------------------------------
    1  O            8.0    -0.0770734    -0.0570592     0.0403153
    2  H            1.0     0.0393866     0.0256101    -0.0226642
    3  H            1.0     0.0376868     0.0314491    -0.0176511

          MAXIMUM GRADIENT = 0.0770734    RMS GRADIENT = 0.0425090

 NSERCH:   1  E=      -74.9535402226  GRAD. MAX=  0.0770734  R.M.S.=  0.0425090

          HESSIAN UPDATED USING THE BFGS FORMULA
             ACTUAL ENERGY CHANGE WAS   0.0109073785
          PREDICTED ENERGY CHANGE WAS  -0.0052825586 RATIO= -2.065
          MIN SEARCH, CORRECT HESSIAN, TRYING PURE NR STEP
               NR STEP HAS LENGTH         =   0.262035
          TRIM/QA LAMBDA FOR NON-TS MODES =  -0.22345299
          TRIM/QA STEP HAS LENGTH         =   0.150000
          RADIUS OF STEP TAKEN=   0.15000  CURRENT TRUST RADIUS=   0.15000

 BEGINNING GEOMETRY SEARCH POINT NSERCH=   2 ...

 COORDINATES OF ALL ATOMS ARE (ANGS)
   ATOM   CHARGE       X              Y              Z
 ------------------------------------------------------------
 O           8.0  -0.0379295221  -0.0280799087   0.0198401291
 H           1.0   0.3039204819   0.8809919837   0.2222000163
 H           1.0   0.6182090402  -0.1983120749  -0.7045401454

          INTERNUCLEAR DISTANCES (ANGS.)
          ------------------------------

                1 O          2 H          3 H     

   1 O       0.0000000    0.9920800 *  0.9920804 *
   2 H       0.9920800 *  0.0000000    1.4568877 *
   3 H       0.9920804 *  1.4568877 *  0.0000000  

  * ... LESS THAN  3.000

 ...... END OF ONE-ELECTRON INTEGRALS ......
 STEP CPU TIME =     0.00 TOTAL CPU TIME =          0.0 (      0.0 MIN)
 TOTAL WALL CLOCK TIME=          0.1 SECONDS, CPU UTILIZATION IS    33.33%
 TOTAL NUMBER OF NONZERO TWO-ELECTRON INTEGRALS =                 319
          1 INTEGRAL RECORDS WERE STORED ON DISK FILE  8.
  ...... END OF TWO-ELECTRON INTEGRALS .....
 STEP CPU TIME =     0.00 TOTAL CPU TIME =          0.0 (      0.0 MIN)
 TOTAL WALL CLOCK TIME=          0.1 SECONDS, CPU UTILIZATION IS    33.33%

          --------------------------
                 RHF SCF CALCULATION
          --------------------------
     DENSITY MATRIX CONV=  2.00E-04

 ITER EX DEM     TOTAL ENERGY        E CHANGE  DENSITY CHANGE    DIIS ERROR
   1  0  0      -74.9628117522   -74.9628117522   0.037661777   0.000000000
   2  1  0      -74.9642209483    -0.0014091961   0.014935605   0.000000000
   3  2  0      -74.9644443554    -0.0002234071   0.006327520   0.000000000
   4  3  0      -74.9644876665    -0.0000433112   0.002735393   0.000000000
   5  0  0      -74.9644962372    -0.0000085707   0.002174755   0.000000000
   6  1  0      -74.9644983551    -0.0000021179   0.000016005   0.000000000
   7  2  0      -74.9644983552    -0.0000000001   0.000004976   0.000000000

          -----------------
          DENSITY CONVERGED
          -----------------
     TIME TO FORM FOCK OPERATORS=       0.0 SECONDS (       0.0 SEC/ITER)
     TIME TO SOLVE SCF EQUATIONS=       0.0 SECONDS (       0.0 SEC/ITER)

 FINAL RHF ENERGY IS      -74.9644983552 AFTER   7 ITERATIONS
 ...... END OF RHF CALCULATION ......
 STEP CPU TIME =     0.00 TOTAL CPU TIME =          0.0 (      0.0 MIN)
 TOTAL WALL CLOCK TIME=          0.1 SECONDS, CPU UTILIZATION IS    33.33%
 ..... END OF 1-ELECTRON GRADIENT ......
 STEP CPU TIME =     0.00 TOTAL CPU TIME =          0.0 (      0.0 MIN)
 TOTAL WALL CLOCK TIME=          0.1 SECONDS, CPU UTILIZATION IS    33.33%
 ...... END OF 2-ELECTRON GRADIENT ......
 STEP CPU TIME =     0.00 TOTAL CPU TIME =          0.0 (      0.0 MIN)
 TOTAL WALL CLOCK TIME=          0.1 SECONDS, CPU UTILIZATION IS    33.33%

          NSERCH=  2     ENERGY=     -74.9644984

                                 -----------------------
                                 GRADIENT (HARTREE/BOHR)
                                 -----------------------
        ATOM     ZNUC       DE/DX         DE/DY         DE/DZ
 --------------------------------------------------------------
    1  O            8.0    -0.0163796    -0.0121259     0.0085679
    2  H            1.0     0.0106084    -0.0022434    -0.0114160
    3  H            1.0     0.0057712     0.0143693     0.0028481

          MAXIMUM GRADIENT = 0.0163796    RMS GRADIENT = 0.0104591

 NSERCH:   2  E=      -74.9644983552  GRAD. MAX=  0.0163796  R.M.S.=  0.0104591

          HESSIAN UPDATED USING THE BFGS FORMULA
             ACTUAL ENERGY CHANGE WAS  -0.0109581326
          PREDICTED ENERGY CHANGE WAS  -0.0110753967 RATIO=  0.989
          MIN SEARCH, CORRECT HESSIAN, TRYING PURE NR STEP
               NR STEP HAS LENGTH         =   0.112916
          RADIUS OF STEP TAKEN=   0.11292  CURRENT TRUST RADIUS=   0.30000

 BEGINNING GEOMETRY SEARCH POINT NSERCH=   3 ...

 COORDINATES OF ALL ATOMS ARE (ANGS)
   ATOM   CHARGE       X              Y              Z
 ------------------------------------------------------------
 O           8.0  -0.0197160944  -0.0145961921   0.0103130641
 H           1.0   0.2869407339   0.9012873873   0.2501788947
 H           1.0   0.6169753604  -0.2320911953  -0.7229919587

          INTERNUCLEAR DISTANCES (ANGS.)
          ------------------------------

                1 O          2 H          3 H     

   1 O       0.0000000    0.9951968 *  0.9951966 *
   2 H       0.9951968 *  0.0000000    1.5298795 *
   3 H       0.9951966 *  1.5298795 *  0.0000000  

  * ... LESS THAN  3.000

 ...... END OF ONE-ELECTRON INTEGRALS ......
 STEP CPU TIME =     0.00 TOTAL CPU TIME =          0.0 (      0.0 MIN)
 TOTAL WALL CLOCK TIME=          0.1 SECONDS, CPU UTILIZATION IS    33.33%
 TOTAL NUMBER OF NONZERO TWO-ELECTRON INTEGRALS =                 319
          1 INTEGRAL RECORDS WERE STORED ON DISK FILE  8.
  ...... END OF TWO-ELECTRON INTEGRALS .....
 STEP CPU TIME =     0.00 TOTAL CPU TIME =          0.0 (      0.0 MIN)
 TOTAL WALL CLOCK TIME=          0.1 SECONDS, CPU UTILIZATION IS    30.77%

          --------------------------
                 RHF SCF CALCULATION
          --------------------------
     DENSITY MATRIX CONV=  5.00E-05

 ITER EX DEM     TOTAL ENERGY        E CHANGE  DENSITY CHANGE    DIIS ERROR
   1  0  0      -74.9655864282   -74.9655864282   0.017570381   0.000000000
   2  1  0      -74.9657720906    -0.0001856624   0.006707262   0.000000000
   3  2  0      -74.9658048544    -0.0000327638   0.002693254   0.000000000
   4  3  0      -74.9658111837    -0.0000063293   0.001132606   0.000000000
   5  0  0      -74.9658124298    -0.0000012461   0.000894232   0.000000000
   6  1  0      -74.9658127372    -0.0000003073   0.000016072   0.000000000
   7  2  0      -74.9658127373    -0.0000000001   0.000005166   0.000000000
   8  3  0      -74.9658127373    -0.0000000000   0.000001819   0.000000000

          -----------------
          DENSITY CONVERGED
          -----------------
     TIME TO FORM FOCK OPERATORS=       0.0 SECONDS (       0.0 SEC/ITER)
     TIME TO SOLVE SCF EQUATIONS=       0.0 SECONDS (       0.0 SEC/ITER)

 FINAL RHF ENERGY IS      -74.9658127373 AFTER   8 ITERATIONS
 ...... END OF RHF CALCULATION ......
 STEP CPU TIME =     0.00 TOTAL CPU TIME =          0.0 (      0.0 MIN)
 TOTAL WALL CLOCK TIME=          0.1 SECONDS, CPU UTILIZATION IS    30.77%
 ..... END OF 1-ELECTRON GRADIENT ......
 STEP CPU TIME =     0.00 TOTAL CPU TIME =          0.0 (      0.0 MIN)
 TOTAL WALL CLOCK TIME=          0.1 SECONDS, CPU UTILIZATION IS    30.77%
 ...... END OF 2-ELECTRON GRADIENT ......
 STEP CPU TIME =     0.01 TOTAL CPU TIME =          0.0 (      0.0 MIN)
 TOTAL WALL CLOCK TIME=          0.1 SECONDS, CPU UTILIZATION IS    38.46%

          NSERCH=  3     ENERGY=     -74.9658127

                                 -----------------------
                                 GRADIENT (HARTREE/BOHR)
                                 -----------------------
        ATOM     ZNUC       DE/DX         DE/DY         DE/DZ
 --------------------------------------------------------------
    1  O            8.0    -0.0047727    -0.0035335     0.0024963
    2  H            1.0     0.0010038     0.0065149     0.0028287
    3  H            1.0     0.0037689    -0.0029814    -0.0053251

          MAXIMUM GRADIENT = 0.0065149    RMS GRADIENT = 0.0040055

 NSERCH:   3  E=      -74.9658127373  GRAD. MAX=  0.0065149  R.M.S.=  0.0040055

          HESSIAN UPDATED USING THE BFGS FORMULA
             ACTUAL ENERGY CHANGE WAS  -0.0013143820
          PREDICTED ENERGY CHANGE WAS  -0.0015435062 RATIO=  0.852
          MIN SEARCH, CORRECT HESSIAN, TRYING PURE NR STEP
               NR STEP HAS LENGTH         =   0.020570
          RADIUS OF STEP TAKEN=   0.02057  CURRENT TRUST RADIUS=   0.15969

 BEGINNING GEOMETRY SEARCH POINT NSERCH=   4 ...

 COORDINATES OF ALL ATOMS ARE (ANGS)
   ATOM   CHARGE       X              Y              Z
 ------------------------------------------------------------
 O           8.0  -0.0185574865  -0.0137383702   0.0097070694
 H           1.0   0.2879959523   0.8952452299   0.2456621289
 H           1.0   0.6147615342  -0.2269068597  -0.7178691983

          INTERNUCLEAR DISTANCES (ANGS.)
          ------------------------------

                1 O          2 H          3 H     

   1 O       0.0000000    0.9878770 *  0.9878770 *
   2 H       0.9878770 *  0.0000000    1.5147256 *
   3 H       0.9878770 *  1.5147256 *  0.0000000  

  * ... LESS THAN  3.000

 ...... END OF ONE-ELECTRON INTEGRALS ......
 STEP CPU TIME =     0.00 TOTAL CPU TIME =          0.0 (      0.0 MIN)
 TOTAL WALL CLOCK TIME=          0.1 SECONDS, CPU UTILIZATION IS    38.46%
 TOTAL NUMBER OF NONZERO TWO-ELECTRON INTEGRALS =                 319
          1 INTEGRAL RECORDS WERE STORED ON DISK FILE  8.
  ...... END OF TWO-ELECTRON INTEGRALS .....
 STEP CPU TIME =     0.00 TOTAL CPU TIME =          0.0 (      0.0 MIN)
 TOTAL WALL CLOCK TIME=          0.1 SECONDS, CPU UTILIZATION IS    38.46%

          --------------------------
                 RHF SCF CALCULATION
          --------------------------
     DENSITY MATRIX CONV=  1.00E-05

 ITER EX DEM     TOTAL ENERGY        E CHANGE  DENSITY CHANGE    DIIS ERROR
   1  0  0      -74.9658892965   -74.9658892965   0.002556890   0.000000000
   2  1  0      -74.9658956142    -0.0000063177   0.000555042   0.000000000
   3  2  0      -74.9658959191    -0.0000003049   0.000226887   0.000000000
   4  3  0      -74.9658959700    -0.0000000509   0.000098686   0.000000000
   5  4  0      -74.9658959798    -0.0000000099   0.000042955   0.000000000
   6  5  0      -74.9658959818    -0.0000000019   0.000018869   0.000000000
   7  6  0      -74.9658959821    -0.0000000004   0.000008315   0.000000000
   8  7  0      -74.9658959822    -0.0000000001   0.000003672   0.000000000

          -----------------
          DENSITY CONVERGED
          -----------------
     TIME TO FORM FOCK OPERATORS=       0.0 SECONDS (       0.0 SEC/ITER)
     TIME TO SOLVE SCF EQUATIONS=       0.0 SECONDS (       0.0 SEC/ITER)

 FINAL RHF ENERGY IS      -74.9658959822 AFTER   8 ITERATIONS
 ...... END OF RHF CALCULATION ......
 STEP CPU TIME =     0.00 TOTAL CPU TIME =          0.0 (      0.0 MIN)
 TOTAL WALL CLOCK TIME=          0.1 SECONDS, CPU UTILIZATION IS    38.46%
 ..... END OF 1-ELECTRON GRADIENT ......
 STEP CPU TIME =     0.00 TOTAL CPU TIME =          0.0 (      0.0 MIN)
 TOTAL WALL CLOCK TIME=          0.1 SECONDS, CPU UTILIZATION IS    38.46%
 ...... END OF 2-ELECTRON GRADIENT ......
 STEP CPU TIME =     0.00 TOTAL CPU TIME =          0.0 (      0.0 MIN)
 TOTAL WALL CLOCK TIME=          0.1 SECONDS, CPU UTILIZATION IS    38.46%

          NSERCH=  4     ENERGY=     -74.9658960

                                 -----------------------
                                 GRADIENT (HARTREE/BOHR)
                                 -----------------------
        ATOM     ZNUC       DE/DX         DE/DY         DE/DZ
 --------------------------------------------------------------
    1  O            8.0     0.0018003     0.0013328    -0.0009417
    2  H            1.0    -0.0006247    -0.0016122    -0.0003413
    3  H            1.0    -0.0011756     0.0002794     0.0012830

          MAXIMUM GRADIENT = 0.0018003    RMS GRADIENT = 0.0011603

 NSERCH:   4  E=      -74.9658959822  GRAD. MAX=  0.0018003  R.M.S.=  0.0011603

          HESSIAN UPDATED USING THE BFGS FORMULA
             ACTUAL ENERGY CHANGE WAS  -0.0000832449
          PREDICTED ENERGY CHANGE WAS  -0.0001060460 RATIO=  0.785
          MIN SEARCH, CORRECT HESSIAN, TRYING PURE NR STEP
               NR STEP HAS LENGTH         =   0.003101
          RADIUS OF STEP TAKEN=   0.00310  CURRENT TRUST RADIUS=   0.05000

 BEGINNING GEOMETRY SEARCH POINT NSERCH=   5 ...

 COORDINATES OF ALL ATOMS ARE (ANGS)
   ATOM   CHARGE       X              Y              Z
 ------------------------------------------------------------
 O           8.0  -0.0193359065  -0.0143146558   0.0101142402
 H           1.0   0.2882298673   0.8960666720   0.2459164594
 H           1.0   0.6153060391  -0.2271520162  -0.7185306995

          INTERNUCLEAR DISTANCES (ANGS.)
          ------------------------------

                1 O          2 H          3 H     

   1 O       0.0000000    0.9894410 *  0.9894410 *
   2 H       0.9894410 *  0.0000000    1.5161653 *
   3 H       0.9894410 *  1.5161653 *  0.0000000  

  * ... LESS THAN  3.000

 ...... END OF ONE-ELECTRON INTEGRALS ......
 STEP CPU TIME =     0.00 TOTAL CPU TIME =          0.0 (      0.0 MIN)
 TOTAL WALL CLOCK TIME=          0.1 SECONDS, CPU UTILIZATION IS    38.46%
 TOTAL NUMBER OF NONZERO TWO-ELECTRON INTEGRALS =                 319
          1 INTEGRAL RECORDS WERE STORED ON DISK FILE  8.
  ...... END OF TWO-ELECTRON INTEGRALS .....
 STEP CPU TIME =     0.00 TOTAL CPU TIME =          0.0 (      0.0 MIN)
 TOTAL WALL CLOCK TIME=          0.1 SECONDS, CPU UTILIZATION IS    38.46%

          --------------------------
                 RHF SCF CALCULATION
          --------------------------
     DENSITY MATRIX CONV=  1.00E-05

 ITER EX DEM     TOTAL ENERGY        E CHANGE  DENSITY CHANGE    DIIS ERROR
   1  0  0      -74.9659003889   -74.9659003889   0.000748061   0.000000000
   2  1  0      -74.9659011208    -0.0000007318   0.000313335   0.000000000
   3  2  0      -74.9659011969    -0.0000000761   0.000125753   0.000000000
   4  3  0      -74.9659012110    -0.0000000141   0.000053304   0.000000000
   5  4  0      -74.9659012138    -0.0000000027   0.000022955   0.000000000
   6  5  0      -74.9659012143    -0.0000000005   0.000010020   0.000000000
   7  6  0      -74.9659012144    -0.0000000001   0.000004403   0.000000000

          -----------------
          DENSITY CONVERGED
          -----------------
     TIME TO FORM FOCK OPERATORS=       0.0 SECONDS (       0.0 SEC/ITER)
     TIME TO SOLVE SCF EQUATIONS=       0.0 SECONDS (       0.0 SEC/ITER)

 FINAL RHF ENERGY IS      -74.9659012144 AFTER   7 ITERATIONS
 ...... END OF RHF CALCULATION ......
 STEP CPU TIME =     0.00 TOTAL CPU TIME =          0.0 (      0.0 MIN)
 TOTAL WALL CLOCK TIME=          0.1 SECONDS, CPU UTILIZATION IS    38.46%
 ..... END OF 1-ELECTRON GRADIENT ......
 STEP CPU TIME =     0.00 TOTAL CPU TIME =          0.0 (      0.0 MIN)
 TOTAL WALL CLOCK TIME=          0.1 SECONDS, CPU UTILIZATION IS    38.46%
 ...... END OF 2-ELECTRON GRADIENT ......
 STEP CPU TIME =     0.00 TOTAL CPU TIME =          0.0 (      0.0 MIN)
 TOTAL WALL CLOCK TIME=          0.1 SECONDS, CPU UTILIZATION IS    38.46%

          NSERCH=  5     ENERGY=     -74.9659012

                                 -----------------------
                                 GRADIENT (HARTREE/BOHR)
                                 -----------------------
        ATOM     ZNUC       DE/DX         DE/DY         DE/DZ
 --------------------------------------------------------------
    1  O            8.0    -0.0000438    -0.0000324     0.0000229
    2  H            1.0     0.0000174     0.0000317     0.0000018
    3  H            1.0     0.0000264     0.0000007    -0.0000247

          MAXIMUM GRADIENT = 0.0000438    RMS GRADIENT = 0.0000260

 NSERCH:   5  E=      -74.9659012144  GRAD. MAX=  0.0000438  R.M.S.=  0.0000260


      ***** EQUILIBRIUM GEOMETRY LOCATED *****
 COORDINATES OF ALL ATOMS ARE (ANGS)
   ATOM   CHARGE       X              Y              Z
 ------------------------------------------------------------
 O           8.0  -0.0193359065  -0.0143146558   0.0101142402
 H           1.0   0.2882298673   0.8960666720   0.2459164594
 H           1.0   0.6153060391  -0.2271520162  -0.7185306995

          INTERNUCLEAR DISTANCES (ANGS.)
          ------------------------------

                1 O          2 H          3 H     

   1 O       0.0000000    0.9894410 *  0.9894410 *
   2 H       0.9894410 *  0.0000000    1.5161653 *
   3 H       0.9894410 *  1.5161653 *  0.0000000  

  * ... LESS THAN  3.000


          NUCLEAR ENERGY    =        8.9062144681
          ELECTRONIC ENERGY =      -83.8721156825
          TOTAL ENERGY      =      -74.9659012144

          ------------------
          MOLECULAR ORBITALS
          ------------------

                      1          2          3          4          5
                  -20.2516    -1.2575    -0.5938    -0.4597    -0.3926
                     A          A          A          A          A   
    1  O  1  S   -0.994216   0.233767  -0.000000  -0.104036   0.000000
    2  O  1  S   -0.025846  -0.844460   0.000000   0.538165   0.000000
    3  O  1  X   -0.003085  -0.091006   0.132176  -0.560020   0.636021
    4  O  1  Y   -0.002284  -0.067375  -0.453907  -0.414599  -0.387693
    5  O  1  Z    0.001614   0.047603  -0.389746   0.292931   0.667212
    6  H  2  S    0.005584  -0.155592  -0.449226  -0.295117   0.000000
    7  H  3  S    0.005584  -0.155592   0.449226  -0.295117   0.000000

                      6          7
                    0.5818     0.6926
                     A          A   
    1  O  1  S   -0.125814   0.000000
    2  O  1  S    0.820086  -0.000000
    3  O  1  X    0.565731   0.207048
    4  O  1  Y    0.418827  -0.711029
    5  O  1  Z   -0.295918  -0.610522
    6  H  2  S   -0.769138   0.814625
    7  H  3  S   -0.769138  -0.814625

     ----------------------------------------------------------------
     PROPERTY VALUES FOR THE RHF   SELF-CONSISTENT FIELD WAVEFUNCTION
     ----------------------------------------------------------------

          -----------------
          ENERGY COMPONENTS
          -----------------

         WAVEFUNCTION NORMALIZATION =       1.0000000000

                ONE ELECTRON ENERGY =    -121.8336124548
                TWO ELECTRON ENERGY =      37.9614967723
           NUCLEAR REPULSION ENERGY =       8.9062144681
                                      ------------------
                       TOTAL ENERGY =     -74.9659012144

 ELECTRON-ELECTRON POTENTIAL ENERGY =      37.9614967723
  NUCLEUS-ELECTRON POTENTIAL ENERGY =    -196.3521563066
   NUCLEUS-NUCLEUS POTENTIAL ENERGY =       8.9062144681
                                      ------------------
             TOTAL POTENTIAL ENERGY =    -149.4844450662
               TOTAL KINETIC ENERGY =      74.5185438518
                 VIRIAL RATIO (V/T) =       2.0060033025

          ---------------------------------------
          MULLIKEN AND LOWDIN POPULATION ANALYSES
          ---------------------------------------

     ATOMIC MULLIKEN POPULATION IN EACH MOLECULAR ORBITAL

                      1          2          3          4          5

                  2.000000   2.000000   2.000000   2.000000   2.000000

    1             2.001239   1.628827   1.073060   1.627370   2.000000
    2            -0.000619   0.185586   0.463470   0.186315   0.000000
    3            -0.000619   0.185586   0.463470   0.186315   0.000000

               ----- POPULATIONS IN EACH AO -----
                             MULLIKEN      LOWDIN
              1  O  1  S      1.99784     1.99629
              2  O  1  S      1.84894     1.71143
              3  O  1  X      1.63335     1.64145
              4  O  1  Y      1.31396     1.33288
              5  O  1  Z      1.53641     1.54948
              6  H  2  S      0.83475     0.88423
              7  H  3  S      0.83475     0.88423

          ----- MULLIKEN ATOMIC OVERLAP POPULATIONS -----
          (OFF-DIAGONAL ELEMENTS NEED TO BE MULTIPLIED BY 2)

             1           2           3

    1    7.8227516
    2    0.2538728   0.6262763
    3    0.2538728  -0.0453976   0.6262763

          TOTAL MULLIKEN AND LOWDIN ATOMIC POPULATIONS
       ATOM         MULL.POP.    CHARGE          LOW.POP.     CHARGE
    1 O             8.330497   -0.330497         8.231533   -0.231533
    2 H             0.834751    0.165249         0.884234    0.115766
    3 H             0.834751    0.165249         0.884234    0.115766

          -------------------------------
          BOND ORDER AND VALENCE ANALYSIS     BOND ORDER THRESHOLD=0.050
          -------------------------------

                   BOND                       BOND                       BOND
  ATOM PAIR DIST  ORDER      ATOM PAIR DIST  ORDER      ATOM PAIR DIST  ORDER
    1   2  0.989  0.964        1   3  0.989  0.964

                       TOTAL       BONDED        FREE
      ATOM            VALENCE     VALENCE     VALENCE
    1 O                 1.928       1.928      -0.000
    2 H                 0.973       0.973       0.000
    3 H                 0.973       0.973       0.000

          ---------------------
          ELECTROSTATIC MOMENTS
          ---------------------

 POINT   1           X           Y           Z (BOHR)    CHARGE
                 0.063093    0.046710   -0.033002       -0.00 (A.U.)
         DX          DY          DZ         /D/  (DEBYE)
     1.266356    0.937521   -0.662396    1.709202
 ...... END OF PROPERTY EVALUATION ......
 STEP CPU TIME =     0.00 TOTAL CPU TIME =          0.0 (      0.0 MIN)
 TOTAL WALL CLOCK TIME=          0.1 SECONDS, CPU UTILIZATION IS    38.46%
  $VIB   
          IVIB=   0 IATOM=   0 ICOORD=   0 E=      -74.9659012144
 -4.376028723E-05-3.238111080E-05 2.289903781E-05 1.736830429E-05 3.166183369E-05
  1.841192772E-06 2.639198297E-05 7.192770550E-07-2.474023065E-05
  1.266356411E+00 9.375207631E-01-6.623958933E-01
 ......END OF GEOMETRY SEARCH......
 STEP CPU TIME =     0.00 TOTAL CPU TIME =          0.0 (      0.0 MIN)
 TOTAL WALL CLOCK TIME=          0.1 SECONDS, CPU UTILIZATION IS    38.46%
               580000  WORDS OF DYNAMIC MEMORY USED
 EXECUTION OF GAMESS TERMINATED NORMALLY Tue Mar  3 11:37:42 2020
 DDI: 263640 bytes (0.3 MB / 0 MWords) used by master data server.

 ----------------------------------------
 CPU timing information for all processes
 ========================================
 0: 0.34 + 0.29 = 0.64
 1: 0.02 + 0.03 = 0.05
 ----------------------------------------
 ddikick.x: exited gracefully.
unset echo
----- accounting info -----
Files used on the master node Vusals-MacBook-Pro.local were:
-rw-r--r--@ 1 wurthel  staff      345 Mar  3 11:37 .//Water_STO-3G.F05
-rw-r--r--  1 wurthel  staff   180016 Mar  3 11:37 .//Water_STO-3G.F08
-rw-r--r--  1 wurthel  staff  1668720 Mar  3 11:37 .//Water_STO-3G.F10
-rw-r--r--  1 wurthel  staff    13801 Mar  3 11:37 .//Water_STO-3G.dat
-rw-r--r--@ 1 wurthel  staff      345 Mar  3 11:36 .//Water_STO-3G.inp
-rw-r--r--  1 wurthel  staff    49856 Mar  3 11:37 .//Water_STO-3G.log
ls: No match.
ls: No match.
ls: No match.
Tue Mar  3 11:37:45 MSK 2020
0.103u 0.102s 0:03.50 5.7%	0+0k 0+0io 595pf+0w
