----- GAMESS execution script 'rungms' -----
This job is running on host Vusals-MacBook-Pro.local
under operating system Darwin at Sun Mar 1 13:57:34 MSK 2020
Available scratch disk space (Kbyte units) at beginning of the job is
Filesystem   1024-blocks     Used Available Capacity iused               ifree %iused  Mounted on
/dev/disk1s5   118181844 43264196  71555224    38%  992197 9223372036853783610    0%   /
GAMESS temporary binary files will be written to ./
GAMESS supplementary output files will be written to ./
Copying input file Ethylene_glycol.inp to your run's scratch directory...
cp Ethylene_glycol.inp .//Ethylene_glycol.F05
unset echo
.//ddikick.x .//gamess.30Sep2018R3.x Ethylene_glycol -ddi 1 1 Vusals-MacBook-Pro.local -scr ./

 Distributed Data Interface kickoff program.
 Initiating 1 compute processes on 1 nodes to run the following command:
 .//gamess.30Sep2018R3.x Ethylene_glycol 

          ******************************************************
          *         GAMESS VERSION = 30 SEP 2018 (R3)         *
          *             FROM IOWA STATE UNIVERSITY             *
          * M.W.SCHMIDT, K.K.BALDRIDGE, J.A.BOATZ, S.T.ELBERT, *
          *   M.S.GORDON, J.H.JENSEN, S.KOSEKI, N.MATSUNAGA,   *
          *          K.A.NGUYEN, S.J.SU, T.L.WINDUS,           *
          *       TOGETHER WITH M.DUPUIS, J.A.MONTGOMERY       *
          *         J.COMPUT.CHEM.  14, 1347-1363(1993)        *
          **************** 64 BIT APPLE VERSION ****************

  SINCE 1993, STUDENTS AND POSTDOCS WORKING AT IOWA STATE UNIVERSITY
  AND ALSO IN THEIR VARIOUS JOBS AFTER LEAVING ISU HAVE MADE IMPORTANT
  CONTRIBUTIONS TO THE CODE:
     IVANA ADAMOVIC, CHRISTINE AIKENS, YURI ALEXEEV, POOJA ARORA,
     ANDREY ASADCHEV, ROB BELL, PRADIPTA BANDYOPADHYAY, JONATHAN BENTZ,
     BRETT BODE, KURT BRORSEN, CALEB CARLIN, GALINA CHABAN, WEI CHEN,
     CHEOL HO CHOI, PAUL DAY, ALBERT DEFUSCO, NUWAN DESILVA, TIM DUDLEY,
     DMITRI FEDOROV, ALEX FINDLATER, GRAHAM FLETCHER, MARK FREITAG,
     KURT GLAESEMANN, ANASTASIA GUNINA,
     DAN KEMP, GRANT MERRILL, NORIYUKI MINEZAWA, JONATHAN MULLIN,
     TAKESHI NAGATA, SEAN NEDD, HEATHER NETZLOFF, BOSILJKA NJEGIC, RYAN OLSON,
     MIKE PAK, BUU PHAM,
     SPENCER PRUITT, LUKE ROSKOP, JIM SHOEMAKER, LYUDMILA SLIPCHENKO,
     TONY SMITH, SAROM SOK LEANG, JIE SONG, TETSUYA TAKETSUGU, SIMON WEBB,
     PENG XU, SOOHAENG YOO, FEDERICO ZAHARIEV

  ADDITIONAL CODE HAS BEEN PROVIDED BY COLLABORATORS IN OTHER GROUPS:
     IOWA STATE UNIVERSITY:
          JOE IVANIC, AARON WEST, LAIMUTIS BYTAUTAS, KLAUS RUEDENBERG
     UNIVERSITY OF TOKYO: KIMIHIKO HIRAO, TAKAHITO NAKAJIMA,
          TAKAO TSUNEDA, MUNEAKI KAMIYA, SUSUMU YANAGISAWA,
          KIYOSHI YAGI, MAHITO CHIBA, SEIKEN TOKURA, NAOAKI KAWAKAMI
     UNIVERSITY OF AARHUS: FRANK JENSEN
     UNIVERSITY OF IOWA: VISVALDAS KAIRYS, HUI LI
     NATIONAL INST. OF STANDARDS AND TECHNOLOGY: WALT STEVENS, DAVID GARMER
     UNIVERSITY OF PISA: BENEDETTA MENNUCCI, JACOPO TOMASI
     UNIVERSITY OF MEMPHIS: HENRY KURTZ, PRAKASHAN KORAMBATH
     UNIVERSITY OF ALBERTA: TOBY ZENG, MARIUSZ KLOBUKOWSKI
     UNIVERSITY OF NEW ENGLAND: MARK SPACKMAN
     MIE UNIVERSITY: HIROAKI UMEDA
     NAT. INST. OF ADVANCED INDUSTRIAL SCIENCE AND TECHNOLOGY: KAZUO KITAURA
     MICHIGAN STATE UNIVERSITY:
          KAROL KOWALSKI, MARTA WLOCH, JEFFREY GOUR, JESSE LUTZ,
          WEI LI, JUN SHEN, J. EMILIANO DEUSTUA, PIOTR PIECUCH
     UNIVERSITY OF MINNESOTA:
          YINAN SHU
     UNIVERSITY OF SILESIA: MONIKA MUSIAL, STANISLAW KUCHARSKI
     FACULTES UNIVERSITAIRES NOTRE-DAME DE LA PAIX:
          OLIVIER QUINET, BENOIT CHAMPAGNE
     UNIVERSITY OF CALIFORNIA - SANTA BARBARA: BERNARD KIRTMAN
     INSTITUTE FOR MOLECULAR SCIENCE:
          KAZUYA ISHIMURA, MICHIO KATOUDA, AND SHIGERU NAGASE
     UNIVERSITY OF NOTRE DAME: ANNA POMOGAEVA, DAN CHIPMAN
     KYUSHU UNIVERSITY:
          HARUYUKI NAKANO,
          FENG LONG GU, JACEK KORCHOWIEC, MARCIN MAKOWSKI, AND YURIKO AOKI,
          HIROTOSHI MORI AND EISAKU MIYOSHI
     PENNSYLVANIA STATE UNIVERSITY:
          TZVETELIN IORDANOV, CHET SWALINA, JONATHAN SKONE,
          SHARON HAMMES-SCHIFFER
     WASEDA UNIVERSITY:
          MASATO KOBAYASHI, TOMOKO AKAMA, TSUGUKI TOUMA,
          TAKESHI YOSHIKAWA, YASUHIRO IKABATA, JUNJI SEINO,
          YUYA NAKAJIMA, HIROMI NAKAI
     NANJING UNIVERSITY: SHUHUA LI
     UNIVERSITY OF NEBRASKA:
          PEIFENG SU, DEJUN SI, NANDUN THELLAMUREGE, YALI WANG, HUI LI
     UNIVERSITY OF ZURICH: ROBERTO PEVERATI, KIM BALDRIDGE
     N. COPERNICUS UNIVERSITY AND JACKSON STATE UNIVERSITY:
          MARIA BARYSZ
     UNIVERSITY OF COPENHAGEN: Jimmy Kromann, CASPER STEINMANN
     TOKYO INSTITUTE OF TECHNOLOGY: HIROYA NAKATA
     NAGOYA UNIVERSITY: YOSHIO NISHIMOTO, STEPHAN IRLE
     MOSCOW STATE UNIVERSITY: VLADIMIR MIRONOV

 EXECUTION OF GAMESS BEGUN Sun Mar  1 13:57:34 2020

            ECHO OF THE FIRST FEW INPUT CARDS -
 INPUT CARD>!   File created by the GAMESS Input Deck Generator Plugin for Avogadro         
 INPUT CARD> $BASIS GBASIS=N31 NGAUSS=6 $END                                                
 INPUT CARD> $CONTRL SCFTYP=RHF RUNTYP=OPTIMIZE DFTTYP=B3LYP COORD=ZMT $END                 
 INPUT CARD>                                                                                
 INPUT CARD> $DATA                                                                          
 INPUT CARD>Title                                                                           
 INPUT CARD>C1                                                                              
 INPUT CARD>H1                                                                              
 INPUT CARD>O2    1   OH                                                                    
 INPUT CARD>C3    2   CO           1   SP3                                                  
 INPUT CARD>C4    3   CC           2   SP3          1   -D1234                              
 INPUT CARD>O5    4   CO           3   SP3          2   -D2345                              
 INPUT CARD>H6    5   OH           4   SP3          3   D3456                               
 INPUT CARD>H7    3   OH           2   SP3          1   D1237                               
 INPUT CARD>H8    3   OH           2   SP3          1   D1238                               
 INPUT CARD>H9    4   CH           5   SP3          6   D6549                               
 INPUT CARD>H10   4   CH           5   SP3          6   -D654_10                            
 INPUT CARD>                                                                                
 INPUT CARD>CC=1.400                                                                        
 INPUT CARD>CO=1.200                                                                        
 INPUT CARD>CH=1.100                                                                        
 INPUT CARD>OH=1.100                                                                        
 INPUT CARD>SP3=109.500                                                                     
 INPUT CARD>D1234=60.97666920                                                               
 INPUT CARD>D2345=60.88687817                                                               
 INPUT CARD>D3456=58.57534051                                                               
 INPUT CARD>D1237=60.88169214                                                               
 INPUT CARD>D1238=178.88600749                                                              
 INPUT CARD>D6549=179.44152926                                                              
 INPUT CARD>D654_10=62.64052517                                                             
 INPUT CARD>                                                                                
 INPUT CARD> $END                                                                           
 INPUT CARD>                                                                                
 INPUT CARD>                                                                                
 INPUT CARD>                                                                                
 INPUT CARD>                                                                                
    1000000 WORDS OF MEMORY AVAILABLE

     BASIS OPTIONS
     -------------
     GBASIS=N31          IGAUSS=       6      POLAR=NONE    
     NDFUNC=       0     NFFUNC=       0     DIFFSP=       F
     NPFUNC=       0      DIFFS=       F     BASNAM=        


     RUN TITLE
     ---------
 Title                                                                           

 THE POINT GROUP OF THE MOLECULE IS C1      
 THE ORDER OF THE PRINCIPAL AXIS IS     0

 YOUR FULLY SUBSTITUTED Z-MATRIX IS
 H1  
 O2     1   1.1000000
 C3     2   1.2000000  1  109.5000
 C4     3   1.4000000  2  109.5000  1  -60.9767  0
 O5     4   1.2000000  3  109.5000  2  -60.8869  0
 H6     5   1.1000000  4  109.5000  3   58.5753  0
 H7     3   1.1000000  2  109.5000  1   60.8817  0
 H8     3   1.1000000  2  109.5000  1  178.8860  0
 H9     4   1.1000000  5  109.5000  6  179.4415  0
 H10    4   1.1000000  5  109.5000  6  -62.6405  0

 THE MOMENTS OF INERTIA ARE (AMU-ANGSTROM**2)
 IXX=    27.129   IYY=    72.005   IZZ=    84.558

 ATOM      ATOMIC                      COORDINATES (BOHR)
           CHARGE         X                   Y                   Z
 H1          1.0    -2.4505808717       -0.9940327380       -2.1749311036
 O2          8.0    -2.3101539179       -0.8880661866       -0.1036901292
 C3          6.0    -1.2109892328        1.0061679497        0.4845671582
 C4          6.0     1.2329350406        0.9595726526       -0.5275341555
 O5          8.0     2.3616716289       -0.8239835761        0.3014492567
 H6          1.0     1.3408286673       -2.5719620512       -0.1712437849
 H7          1.0    -2.2668004627        2.6615144052       -0.1981323163
 H8          1.0    -1.1036277647        1.1310342625        2.5567326276
 H9          1.0     2.2438610175        2.7088381468       -0.0385692146
 H10         1.0     1.1573911822        0.8303357977       -2.6008355745

          INTERNUCLEAR DISTANCES (ANGS.)
          ------------------------------

                1 H1         2 O2         3 C3         4 C4         5 O5    

   1 H1      0.0000000    1.1000000 *  1.8791621 *  2.3723896 *  2.8653446 *
   2 O2      1.1000000 *  0.0000000    1.2000000 *  2.1264033 *  2.4817340 *
   3 C3      1.8791621 *  1.2000000 *  0.0000000    1.4000000 *  2.1264033 *
   4 C4      2.3723896 *  2.1264033 *  1.4000000 *  0.0000000    1.2000000 *
   5 O5      2.8653446 *  2.4817340 *  2.1264033 *  1.2000000 *  0.0000000  
   6 H6      2.4180222 *  2.1279074 *  2.3514101 *  1.8791621 *  1.1000000 *
   7 H7      2.2013095 *  1.8791621 *  1.1000000 *  2.0667241 *  3.0774754  
   8 H8      2.8358586 *  1.8791621 *  1.1000000 *  2.0496058 *  2.4201803 *
   9 H9      3.3598830    3.0710985    2.0569105 *  1.1000000 *  1.8791621 *
  10 H10     2.1512977 *  2.4372338 *  2.0603863 *  1.1000000 *  1.8791621 *

                6 H6         7 H7         8 H8         9 H9        10 H10   

   1 H1      2.4180222 *  2.2013095 *  2.8358586 *  3.3598830    2.1512977 *
   2 O2      2.1279074 *  1.8791621 *  1.8791621 *  3.0710985    2.4372338 *
   3 C3      2.3514101 *  1.1000000 *  1.1000000 *  2.0569105 *  2.0603863 *
   4 C4      1.8791621 *  2.0667241 *  2.0496058 *  1.1000000 *  1.1000000 *
   5 O5      1.1000000 *  3.0774754    2.4201803 *  1.8791621 *  1.8791621 *
   6 H6      0.0000000    3.3637108    2.7562670 *  2.8359122 *  2.2144785 *
   7 H7      3.3637108    0.0000000    1.7776434 *  2.3885637 *  2.4163931 *
   8 H8      2.7562670 *  1.7776434 *  0.0000000    2.3919009 *  2.9842564 *
   9 H9      2.8359122 *  2.3885637 *  2.3919009 *  0.0000000    1.7768379 *
  10 H10     2.2144785 *  2.4163931 *  2.9842564 *  1.7768379 *  0.0000000  

  * ... LESS THAN  3.000


     ATOMIC BASIS SET
     ----------------
 THE CONTRACTED PRIMITIVE FUNCTIONS HAVE BEEN UNNORMALIZED
 THE CONTRACTED BASIS FUNCTIONS ARE NOW NORMALIZED TO UNITY

  SHELL TYPE  PRIMITIVE        EXPONENT          CONTRACTION COEFFICIENT(S)

 H1        

      1   S       1            18.7311370    0.033494604338
      1   S       2             2.8253944    0.234726953484
      1   S       3             0.6401217    0.813757326146

      2   S       4             0.1612778    1.000000000000

 O2        

      3   S       5          5484.6716600    0.001831074430
      3   S       6           825.2349460    0.013950172200
      3   S       7           188.0469580    0.068445078098
      3   S       8            52.9645000    0.232714335992
      3   S       9            16.8975704    0.470192897984
      3   S      10             5.7996353    0.358520852987

      4   L      11            15.5396162   -0.110777549525    0.070874268231
      4   L      12             3.5999336   -0.148026262701    0.339752839147
      4   L      13             1.0137618    1.130767015354    0.727158577316

      5   L      14             0.2700058    1.000000000000    1.000000000000

 C3        

      6   S      15          3047.5248800    0.001834737132
      6   S      16           457.3695180    0.014037322813
      6   S      17           103.9486850    0.068842622264
      6   S      18            29.2101553    0.232184443216
      6   S      19             9.2866630    0.467941348435
      6   S      20             3.1639270    0.362311985337

      7   L      21             7.8682723   -0.119332419775    0.068999066591
      7   L      22             1.8812885   -0.160854151696    0.316423960957
      7   L      23             0.5442493    1.143456437840    0.744308290898

      8   L      24             0.1687145    1.000000000000    1.000000000000

 C4        

      9   S      25          3047.5248800    0.001834737132
      9   S      26           457.3695180    0.014037322813
      9   S      27           103.9486850    0.068842622264
      9   S      28            29.2101553    0.232184443216
      9   S      29             9.2866630    0.467941348435
      9   S      30             3.1639270    0.362311985337

     10   L      31             7.8682723   -0.119332419775    0.068999066591
     10   L      32             1.8812885   -0.160854151696    0.316423960957
     10   L      33             0.5442493    1.143456437840    0.744308290898

     11   L      34             0.1687145    1.000000000000    1.000000000000

 O5        

     12   S      35          5484.6716600    0.001831074430
     12   S      36           825.2349460    0.013950172200
     12   S      37           188.0469580    0.068445078098
     12   S      38            52.9645000    0.232714335992
     12   S      39            16.8975704    0.470192897984
     12   S      40             5.7996353    0.358520852987

     13   L      41            15.5396162   -0.110777549525    0.070874268231
     13   L      42             3.5999336   -0.148026262701    0.339752839147
     13   L      43             1.0137618    1.130767015354    0.727158577316

     14   L      44             0.2700058    1.000000000000    1.000000000000

 H6        

     15   S      45            18.7311370    0.033494604338
     15   S      46             2.8253944    0.234726953484
     15   S      47             0.6401217    0.813757326146

     16   S      48             0.1612778    1.000000000000

 H7        

     17   S      49            18.7311370    0.033494604338
     17   S      50             2.8253944    0.234726953484
     17   S      51             0.6401217    0.813757326146

     18   S      52             0.1612778    1.000000000000

 H8        

     19   S      53            18.7311370    0.033494604338
     19   S      54             2.8253944    0.234726953484
     19   S      55             0.6401217    0.813757326146

     20   S      56             0.1612778    1.000000000000

 H9        

     21   S      57            18.7311370    0.033494604338
     21   S      58             2.8253944    0.234726953484
     21   S      59             0.6401217    0.813757326146

     22   S      60             0.1612778    1.000000000000

 H10       

     23   S      61            18.7311370    0.033494604338
     23   S      62             2.8253944    0.234726953484
     23   S      63             0.6401217    0.813757326146

     24   S      64             0.1612778    1.000000000000

 TOTAL NUMBER OF BASIS SET SHELLS             =   24
 NUMBER OF CARTESIAN GAUSSIAN BASIS FUNCTIONS =   48
 NUMBER OF ELECTRONS                          =   34
 CHARGE OF MOLECULE                           =    0
 SPIN MULTIPLICITY                            =    1
 NUMBER OF OCCUPIED ORBITALS (ALPHA)          =   17
 NUMBER OF OCCUPIED ORBITALS (BETA )          =   17
 TOTAL NUMBER OF ATOMS                        =   10
 THE NUCLEAR REPULSION ENERGY IS      146.9367784367

     LEBEDEV GRID-BASED DFT OPTIONS
     ------------------------------
     DFTTYP=B3LYP   
     NRAD  =      96     NLEB  =     302
     NRAD0 =      24     NLEB0 =     110
     SWOFF =    5.00E-03 (PURE SCF -> DFT)
     SWITCH=    3.00E-04 (COARSE -> TIGHT GRID)
     THRESH=    0.00E+00 GTHRE=    1.00E+00

 GRIMME'S EMPIRICAL DISPERSION CORRECTION= F

     $CONTRL OPTIONS
     ---------------
 SCFTYP=RHF          RUNTYP=OPTIMIZE     EXETYP=RUN     
 MPLEVL=       0     CITYP =NONE         CCTYP =NONE         VBTYP =NONE    
 DFTTYP=B3LYP        TDDFT =NONE    
 MULT  =       1     ICHARG=       0     NZVAR =       0     COORD =ZMT     
 PP    =NONE         RELWFN=NONE         LOCAL =NONE         NUMGRD=       F
 ISPHER=      -1     NOSYM =       0     MAXIT =      30     UNITS =ANGS    
 PLTORB=       F     MOLPLT=       F     AIMPAC=       F     FRIEND=        
 NPRINT=       7     IREST =       0     GEOM  =INPUT   
 NORMF =       0     NORMP =       0     ITOL  =      20     ICUT  =       9
 INTTYP=BEST         GRDTYP=BEST         QMTTOL= 1.0E-06

     $SYSTEM OPTIONS
     ---------------
  REPLICATED MEMORY=     1000000 WORDS (ON EVERY NODE).
 DISTRIBUTED MEMDDI=           0 MILLION WORDS IN AGGREGATE,
 MEMDDI DISTRIBUTED OVER   1 PROCESSORS IS           0 WORDS/PROCESSOR.
 TOTAL MEMORY REQUESTED ON EACH PROCESSOR=     1000000 WORDS.
 TIMLIM=      525600.00 MINUTES, OR     365.0 DAYS.
 PARALL= F  BALTYP=  DLB     KDIAG=    0  COREFL= F
 MXSEQ2=     300 MXSEQ3=     150  mem10=         0

          ----------------
          PROPERTIES INPUT
          ----------------

     MOMENTS            FIELD           POTENTIAL          DENSITY
 IEMOM =       1   IEFLD =       0   IEPOT =       0   IEDEN =       0
 WHERE =COMASS     WHERE =NUCLEI     WHERE =NUCLEI     WHERE =NUCLEI  
 OUTPUT=BOTH       OUTPUT=BOTH       OUTPUT=BOTH       OUTPUT=BOTH    
 IEMINT=       0   IEFINT=       0                     IEDINT=       0
                                                       MORB  =       0
          EXTRAPOLATION IN EFFECT
          DIIS IN EFFECT
 ORBITAL PRINTING OPTION: NPREO=     1    48     2     1

     -------------------------------
     INTEGRAL TRANSFORMATION OPTIONS
     -------------------------------
     NWORD  =            0
     CUTOFF = 1.0E-09     MPTRAN =       0
     DIRTRF =       F     AOINTS =DUP     

          ----------------------
          INTEGRAL INPUT OPTIONS
          ----------------------
 NOPK  =       1 NORDER=       0 SCHWRZ=       T

   --- ENCODED Z MATRIX ---
 COORD  TYPE   I   J   K   L   M   N
    1      1    2   1
    2      1    3   2
    3      2    3   2   1
    4      1    4   3
    5      2    4   3   2
    6      3    4   3   2   1
    7      1    5   4
    8      2    5   4   3
    9      3    5   4   3   2
   10      1    6   5
   11      2    6   5   4
   12      3    6   5   4   3
   13      1    7   3
   14      2    7   3   2
   15      3    7   3   2   1
   16      1    8   3
   17      2    8   3   2
   18      3    8   3   2   1
   19      1    9   4
   20      2    9   4   5
   21      3    9   4   5   6
   22      1   10   4
   23      2   10   4   5
   24      3   10   4   5   6

 THE DETERMINANT OF THE G MATRIX IS 10**(   -14)

     ------------------------------------------
     THE POINT GROUP IS C1 , NAXIS= 0, ORDER= 1
     ------------------------------------------

     DIMENSIONS OF THE SYMMETRY SUBSPACES ARE
 A   =   48

 ..... DONE SETTING UP THE RUN .....
 STEP CPU TIME =     0.00 TOTAL CPU TIME =          0.0 (      0.0 MIN)
 TOTAL WALL CLOCK TIME=          0.0 SECONDS, CPU UTILIZATION IS     0.00%


          -----------------------------
          STATIONARY POINT LOCATION RUN
          -----------------------------

 OBTAINING INITIAL HESSIAN, HESS=GUESS   
 CARTESIAN COORDINATE OPTIMIZATION USING BADGER'S RULE FORCE CONSTANT GUESS

          PARAMETERS CONTROLLING GEOMETRY SEARCH ARE
          METHOD =QA                  UPHESS =BFGS    
          NNEG   =         0          NFRZ   =         0
          NSTEP  =        50          IFOLOW =         1
          HESS   =GUESS               RESTAR =         F
          IHREP  =         0          HSSEND =         F
          NPRT   =         0          NPUN   =         0
          OPTTOL = 1.000E-04          RMIN   = 1.500E-03
          RMAX   = 1.000E-01          RLIM   = 7.000E-02
          DXMAX  = 3.000E-01          PURIFY =         F
          MOVIE  =         F          TRUPD  =         T
          TRMAX  = 5.000E-01          TRMIN  = 5.000E-02
          ITBMAT =         5          STPT   =         F
          STSTEP = 1.000E-02          PROJCT=          T

 BEGINNING GEOMETRY SEARCH POINT NSERCH=   0 ...

 COORDINATES OF ALL ATOMS ARE (ANGS)
   ATOM   CHARGE       X              Y              Z
 ------------------------------------------------------------
 H1          1.0  -1.2967916447  -0.5260195099  -1.1509240587
 O2          8.0  -1.2224808956  -0.4699444218  -0.0548704573
 C3          6.0  -0.6408279511   0.5324411879   0.2564219159
 C4          6.0   0.6524411733   0.5077840167  -0.2791590733
 O5          8.0   1.2497428962  -0.4360333622   0.1595200885
 H6          1.0   0.7095360259  -1.3610238034  -0.0906183151
 H7          1.0  -1.1995392334   1.4084128718  -0.1048471141
 H8          1.0  -0.5840147047   0.5985175998   1.3529647389
 H9          1.0   1.1874002009   1.4334555192  -0.0204099509
 H10         1.0   0.6124650821   0.4393948134  -1.3763030151

 THE CURRENT FULLY SUBSTITUTED Z-MATRIX IS
 H1  
 O2     1   1.1000000
 C3     2   1.2000000  1   109.5000000
 C4     3   1.4000000  2   109.5000000  1   -60.9766692  0
 O5     4   1.2000000  3   109.5000000  2   -60.8868782  0
 H6     5   1.1000000  4   109.5000000  3    58.5753405  0
 H7     3   1.1000000  2   109.5000000  1    60.8816921  0
 H8     3   1.1000000  2   109.5000000  1   178.8860075  0
 H9     4   1.1000000  5   109.5000000  6   179.4415293  0
 H10    4   1.1000000  5   109.5000000  6   -62.6405252  0

          ********************
          1 ELECTRON INTEGRALS
          ********************
 ...... END OF ONE-ELECTRON INTEGRALS ......
 STEP CPU TIME =     0.00 TOTAL CPU TIME =          0.0 (      0.0 MIN)
 TOTAL WALL CLOCK TIME=          0.0 SECONDS, CPU UTILIZATION IS     0.00%

          -------------
          GUESS OPTIONS
          -------------
          GUESS =HUCKEL            NORB  =       0          NORDER=       0
          MIX   =       F          PRTMO =       F          PUNMO =       F
          TOLZ  = 1.0E-08          TOLE  = 1.0E-05
          SYMDEN=       F          PURIFY=       F

 INITIAL GUESS ORBITALS GENERATED BY HUCKEL   ROUTINE.
 HUCKEL GUESS REQUIRES     26718 WORDS.

 SYMMETRIES FOR INITIAL GUESS ORBITALS FOLLOW.   BOTH SET(S).
    17 ORBITALS ARE OCCUPIED (    4 CORE ORBITALS).
     5=A        6=A        7=A        8=A        9=A       10=A       11=A   
    12=A       13=A       14=A       15=A       16=A       17=A       18=A   
    19=A       20=A       21=A       22=A       23=A       24=A       25=A   
    26=A       27=A   
 ...... END OF INITIAL ORBITAL SELECTION ......
 STEP CPU TIME =     0.00 TOTAL CPU TIME =          0.0 (      0.0 MIN)
 TOTAL WALL CLOCK TIME=          0.0 SECONDS, CPU UTILIZATION IS     0.00%

                    ----------------------
                    AO INTEGRAL TECHNOLOGY
                    ----------------------
     S,P,L SHELL ROTATED AXIS INTEGRALS, REPROGRAMMED BY
        KAZUYA ISHIMURA (IMS) AND JOSE SIERRA (SYNSTAR).
     S,P,D,L SHELL ROTATED AXIS INTEGRALS PROGRAMMED BY
        KAZUYA ISHIMURA (INSTITUTE FOR MOLECULAR SCIENCE).
     S,P,D,F,G SHELL TO TOTAL QUARTET ANGULAR MOMENTUM SUM 5,
        ERIC PROGRAM BY GRAHAM FLETCHER (ELORET AND NASA ADVANCED
        SUPERCOMPUTING DIVISION, AMES RESEARCH CENTER).
     S,P,D,F,G,L SHELL GENERAL RYS QUADRATURE PROGRAMMED BY
        MICHEL DUPUIS (PACIFIC NORTHWEST NATIONAL LABORATORY).

          --------------------
          2 ELECTRON INTEGRALS
          --------------------

 THE -PK- OPTION IS OFF, THE INTEGRALS ARE NOT IN SUPERMATRIX FORM.
 STORING   15000 INTEGRALS/RECORD ON DISK, USING 12 BYTES/INTEGRAL.
 TWO ELECTRON INTEGRAL EVALUATION REQUIRES   89656 WORDS OF MEMORY.
 SCHWARZ INEQUALITY OVERHEAD:      1175 INTEGRALS, T=        0.01
 II,JST,KST,LST =  1  1  1  1 NREC =         1 INTLOC =    1
 II,JST,KST,LST =  2  1  1  1 NREC =         1 INTLOC =    2
 II,JST,KST,LST =  3  1  1  1 NREC =         1 INTLOC =    7
 II,JST,KST,LST =  4  1  1  1 NREC =         1 INTLOC =   22
 II,JST,KST,LST =  5  1  1  1 NREC =         1 INTLOC =  320
 II,JST,KST,LST =  6  1  1  1 NREC =         1 INTLOC = 1390
 II,JST,KST,LST =  7  1  1  1 NREC =         1 INTLOC = 2258
 II,JST,KST,LST =  8  1  1  1 NREC =         1 INTLOC = 8406
 II,JST,KST,LST =  9  1  1  1 NREC =         2 INTLOC = 5510
 II,JST,KST,LST = 10  1  1  1 NREC =         2 INTLOC = 9857
 II,JST,KST,LST = 11  1  1  1 NREC =         4 INTLOC = 5803
 II,JST,KST,LST = 12  1  1  1 NREC =         7 INTLOC = 1808
 II,JST,KST,LST = 13  1  1  1 NREC =         7 INTLOC =12071
 II,JST,KST,LST = 14  1  1  1 NREC =        12 INTLOC = 1432
 II,JST,KST,LST = 15  1  1  1 NREC =        18 INTLOC = 6294
 II,JST,KST,LST = 16  1  1  1 NREC =        20 INTLOC = 5295
 II,JST,KST,LST = 17  1  1  1 NREC =        22 INTLOC = 6844
 II,JST,KST,LST = 18  1  1  1 NREC =        24 INTLOC = 9300
 II,JST,KST,LST = 19  1  1  1 NREC =        27 INTLOC =  758
 II,JST,KST,LST = 20  1  1  1 NREC =        29 INTLOC = 9479
 II,JST,KST,LST = 21  1  1  1 NREC =        32 INTLOC = 6515
 II,JST,KST,LST = 22  1  1  1 NREC =        35 INTLOC = 4429
 II,JST,KST,LST = 23  1  1  1 NREC =        38 INTLOC = 7377
 II,JST,KST,LST = 24  1  1  1 NREC =        41 INTLOC =13091
 SCHWARZ INEQUALITY TEST SKIPPED        2211 INTEGRAL BLOCKS.
 TOTAL NUMBER OF NONZERO TWO-ELECTRON INTEGRALS =              667734
         45 INTEGRAL RECORDS WERE STORED ON DISK FILE  8.
  ...... END OF TWO-ELECTRON INTEGRALS .....
 STEP CPU TIME =     0.08 TOTAL CPU TIME =          0.1 (      0.0 MIN)
 TOTAL WALL CLOCK TIME=          0.1 SECONDS, CPU UTILIZATION IS    80.00%

          --------------------------
             R-B3LYP SCF CALCULATION
          --------------------------

     NUCLEAR ENERGY =       146.9367784367
     MAXIT =   30     NPUNCH=    2
     EXTRAP=T  DAMP=F  SHIFT=F  RSTRCT=F  DIIS=T  DEM=F  SOSCF=F
         DENSITY MATRIX CONVERGENCE THRESHOLD=  1.00E-05
     COARSE -> FINE DFT GRID SWITCH THRESHOLD=  3.00E-04 (SWITCH IN $DFT)
                   HF -> DFT SWITCH THRESHOLD=  5.00E-03 (SWOFF IN $DFT)
     MEMORY REQUIRED FOR RHF ITERS=    394480 WORDS.

 DFT CODE IS SWITCHING FROM THE FINE GRID NRAD= 96,  NLEB=  302
                      TO THE COARSE GRID NRAD0= 24, NLEB0=  110

     EXCHANGE FUNCTIONAL   =B88&HFX   
     CORRELATION FUNCTIONAL=LYP88&VWN5
     DFT THRESHOLD         =.138E-07
     GRID CHANGE THRESHOLD =.300E-03
 FOR AN EULER-MACLAURIN QUADRATURE USING  96 RADIAL POINTS:
 SMALLEST GAUSSIAN PRIMITIVE EXPONENT=        0.1612777588 OF TYPE -S-
 ON ATOM NUMBER   1 HAS RADIAL NORMALIZATION=  1.000000
  LARGEST GAUSSIAN PRIMITIVE EXPONENT=     5484.6716600000 OF TYPE -S-
 ON ATOM NUMBER   2 HAS RADIAL NORMALIZATION=  1.000000
 DFT IS SWITCHED OFF, PERFORMING PURE SCF UNTIL SWOFF THRESHOLD IS REACHED.

 ITER EX DEM     TOTAL ENERGY        E CHANGE  DENSITY CHANGE    DIIS ERROR
          * * *   INITIATING DIIS PROCEDURE   * * *
   1  0  0     -227.9958642121  -227.9958642121   0.352068839   0.433184088
   2  1  0     -228.6175142373    -0.6216500253   0.084089988   0.070661574
   3  2  0     -228.6567127059    -0.0391984686   0.025129101   0.025940349
   4  3  0     -228.6619906568    -0.0052779510   0.013345632   0.007032048
   5  4  0     -228.6625211855    -0.0005305287   0.002561152   0.003179139
 CONVERGED TO SWOFF, SO DFT CALCULATION IS NOW SWITCHED ON.
          * * *   INITIATING DIIS PROCEDURE   * * *
   6  5  0     -229.8764029589    -1.2138817733   0.092295110   0.053281012
   7  6  0     -229.8901151203    -0.0137121615   0.034994336   0.019110397
   8  7  0     -229.8906644479    -0.0005493276   0.014864594   0.017306778
   9  8  0     -229.8919386014    -0.0012741535   0.001873948   0.001114249
  10  9  0     -229.8919446981    -0.0000060967   0.000591958   0.000665902
  11 10  0     -229.8919468351    -0.0000021370   0.000106997   0.000056118
 DFT CODE IS SWITCHING BACK TO THE FINE GRID
          * * *   INITIATING DIIS PROCEDURE   * * *
  12 11  0     -229.8863098607     0.0056369744   0.002428133   0.001479459
  13 12  0     -229.8863243999    -0.0000145392   0.000757403   0.000329603
  14 13  0     -229.8863244502    -0.0000000503   0.000279768   0.000365664
  15 14  0     -229.8863250233    -0.0000005731   0.000064658   0.000037174
  16 15  0     -229.8863250299    -0.0000000066   0.000020123   0.000014480
  17 16  0     -229.8863250317    -0.0000000018   0.000002825   0.000001899
  18 17  0     -229.8863250317    -0.0000000000   0.000001466   0.000001011

          -----------------
          DENSITY CONVERGED
          -----------------
     TIME TO FORM FOCK OPERATORS=       6.8 SECONDS (       0.4 SEC/ITER)
     TIME TO SOLVE SCF EQUATIONS=       0.0 SECONDS (       0.0 SEC/ITER)

 FINAL R-B3LYP ENERGY IS     -229.8863250317 AFTER  18 ITERATIONS
 DFT EXCHANGE + CORRELATION ENERGY =       -24.5886046835
 TOTAL ELECTRON NUMBER             =        33.9999938284

          ------------
          EIGENVECTORS
          ------------

                      1          2          3          4          5
                  -19.1614   -19.1362   -10.2073   -10.2066    -1.1497
                     A          A          A          A          A   
    1  H  1  S    0.000912   0.000261  -0.000078   0.000626   0.057519
    2  H  1  S    0.000816  -0.000468   0.000160   0.000786  -0.000844
    3  O  2  S    0.995097  -0.000291  -0.000107  -0.000168  -0.154155
    4  O  2  S    0.030311   0.000354  -0.000714  -0.000496   0.331361
    5  O  2  X    0.001282  -0.000027  -0.000079  -0.000366   0.079883
    6  O  2  Y    0.002041   0.000005  -0.000196  -0.000653   0.116223
    7  O  2  Z   -0.000797  -0.000061  -0.000097  -0.000379  -0.017117
    8  O  2  S   -0.022077  -0.001630   0.001863   0.002647   0.325890
    9  O  2  X   -0.003390  -0.000868   0.000332  -0.000122   0.035976
   10  O  2  Y   -0.005382  -0.000221  -0.000028  -0.000530   0.040743
   11  O  2  Z    0.000045   0.000075  -0.000027   0.000772  -0.020383
   12  C  3  S    0.000112  -0.000094   0.340985   0.934862  -0.098294
   13  C  3  S   -0.001090  -0.000829   0.011442   0.036747   0.184412
   14  C  3  X   -0.000221  -0.000523  -0.000981  -0.000258  -0.037321
   15  C  3  Y   -0.000121   0.000036  -0.000386  -0.001674  -0.120766
   16  C  3  Z   -0.000104   0.000002   0.000159  -0.000772  -0.049297
   17  C  3  S    0.013502   0.000450  -0.001311  -0.035686   0.028840
   18  C  3  X   -0.002731   0.000572   0.003793  -0.005333   0.010202
   19  C  3  Y   -0.005076  -0.001062  -0.000083   0.000495   0.025131
   20  C  3  Z   -0.002085   0.000432  -0.001771   0.001357   0.008193
   21  C  4  S   -0.000089   0.000111   0.934814  -0.341137  -0.076308
   22  C  4  S   -0.000804  -0.001119   0.035438  -0.014894   0.142487
   23  C  4  X    0.000465   0.000238   0.000720   0.000583   0.009196
   24  C  4  Y    0.000049  -0.000112  -0.001419   0.000689  -0.086037
   25  C  4  Z   -0.000026   0.000053   0.000369  -0.000586   0.038984
   26  C  4  S    0.000355   0.013180  -0.028452   0.022064   0.037604
   27  C  4  X    0.000059   0.002338   0.001609  -0.005902  -0.014079
   28  C  4  Y   -0.001197  -0.005665   0.000115   0.000171   0.008485
   29  C  4  Z    0.000051   0.001608  -0.000230   0.002573  -0.011005
   30  O  5  S    0.000351   0.995099  -0.000200   0.000028  -0.103803
   31  O  5  S    0.000402   0.030353  -0.000868  -0.000188   0.222663
   32  O  5  X    0.000102  -0.002055   0.000273  -0.000093  -0.077445
   33  O  5  Y    0.000022   0.000823  -0.000673   0.000306   0.047800
   34  O  5  Z    0.000066  -0.001272   0.000248  -0.000089  -0.043320
   35  O  5  S   -0.002003  -0.022249   0.003324  -0.000485   0.212169
   36  O  5  X    0.000529   0.004462   0.000195  -0.000781  -0.034015
   37  O  5  Y   -0.000271  -0.003630   0.000179  -0.000037   0.009742
   38  O  5  Z   -0.000041   0.002849   0.000367  -0.000176  -0.016076
   39  H  6  S   -0.000088   0.000870   0.000373  -0.000493   0.043065
   40  H  6  S    0.000344   0.001047   0.000808   0.000125  -0.002798
   41  H  7  S   -0.000643   0.000001  -0.000415  -0.000453   0.021270
   42  H  7  S   -0.000854   0.001358   0.002118   0.004758  -0.007046
   43  H  8  S   -0.000528  -0.000256  -0.000405  -0.000243   0.022822
   44  H  8  S   -0.000922  -0.000713   0.002506   0.005364   0.000981
   45  H  9  S   -0.000015  -0.000443  -0.000520  -0.000111   0.015684
   46  H  9  S    0.001167  -0.000378   0.005114  -0.001715  -0.003029
   47  H 10  S   -0.000116  -0.000733  -0.000545   0.000008   0.019118
   48  H 10  S   -0.000819  -0.001197   0.005642  -0.001711  -0.000225

                      6          7          8          9         10
                   -1.0925    -0.7274    -0.6368    -0.5725    -0.5289
                     A          A          A          A          A   
    1  H  1  S   -0.049855  -0.079327  -0.165712  -0.066213   0.079113
    2  H  1  S    0.002503  -0.028287  -0.082354  -0.044119   0.050471
    3  O  2  S    0.120003   0.072056   0.033237  -0.036268   0.008418
    4  O  2  S   -0.263242  -0.157979  -0.064481   0.093453  -0.020693
    5  O  2  X   -0.044541   0.054921   0.073949  -0.060744  -0.259550
    6  O  2  Y   -0.090427   0.062573   0.149318   0.057607   0.067757
    7  O  2  Z    0.016357   0.084463   0.275998   0.168887  -0.131167
    8  O  2  S   -0.257758  -0.242455  -0.159583   0.094639  -0.036011
    9  O  2  X   -0.014130   0.010485   0.016398  -0.051360  -0.144659
   10  O  2  Y   -0.034840   0.015958   0.038445   0.018733   0.049391
   11  O  2  Z    0.015886   0.043116   0.132431   0.083208  -0.065677
   12  C  3  S    0.051160  -0.128015  -0.083239   0.026343  -0.038287
   13  C  3  S   -0.095373   0.257205   0.183116  -0.042727   0.065994
   14  C  3  X    0.078850   0.122035  -0.103300  -0.135431  -0.198587
   15  C  3  Y    0.081690   0.060372  -0.083660  -0.092433   0.298144
   16  C  3  Z    0.031547  -0.012322   0.127889   0.139229   0.002931
   17  C  3  S   -0.025339   0.234856   0.217776  -0.033941   0.152916
   18  C  3  X   -0.018829   0.020587   0.003189  -0.020466  -0.067687
   19  C  3  Y   -0.018466   0.012338  -0.023258  -0.029636   0.086387
   20  C  3  Z   -0.000547  -0.011482   0.032626   0.057355  -0.055139
   21  C  4  S   -0.084362  -0.120103   0.094900  -0.008763   0.032042
   22  C  4  S    0.159788   0.243199  -0.195879   0.047642  -0.059572
   23  C  4  X    0.083246  -0.120127  -0.070578   0.291678   0.096035
   24  C  4  Y   -0.119804   0.084109  -0.032592  -0.031341   0.140105
   25  C  4  Z    0.051457   0.033579   0.076208   0.128433  -0.016716
   26  C  4  S    0.045849   0.209830  -0.237726  -0.000793  -0.122946
   27  C  4  X   -0.019488  -0.017908   0.021520   0.097283   0.079539
   28  C  4  Y    0.023038   0.004484   0.009817   0.047136   0.091667
   29  C  4  Z   -0.004774   0.000312   0.025516   0.039562   0.035843
   30  O  5  S   -0.163282   0.071246  -0.041442  -0.001651  -0.049885
   31  O  5  S    0.355232  -0.156795   0.084914   0.015999   0.111355
   32  O  5  X   -0.102189  -0.009008  -0.028707   0.083680   0.150440
   33  O  5  Y    0.074140   0.108425  -0.168421   0.369618  -0.069096
   34  O  5  Z   -0.069023   0.022812   0.060366   0.007679   0.023284
   35  O  5  S    0.344408  -0.231415   0.172879  -0.035005   0.197855
   36  O  5  X   -0.044550   0.011383  -0.037785   0.061020   0.071408
   37  O  5  Y    0.013534   0.039633  -0.071928   0.160041  -0.032331
   38  O  5  Z   -0.029887   0.019465   0.016684   0.019041  -0.005058
   39  H  6  S    0.060404  -0.082093   0.087258  -0.183887   0.017828
   40  H  6  S   -0.005137  -0.034844   0.034453  -0.091398   0.014291
   41  H  7  S   -0.013632   0.079138   0.039192  -0.045857   0.190371
   42  H  7  S   -0.005817   0.013972   0.013719  -0.015780   0.106651
   43  H  8  S   -0.008749   0.083139   0.103993   0.028719   0.047201
   44  H  8  S    0.001224   0.016591   0.032064   0.009733   0.050270
   45  H  9  S    0.019791   0.086089  -0.088214   0.063192   0.046634
   46  H  9  S    0.003463   0.023588  -0.042713   0.006775   0.005195
   47  H 10  S    0.019310   0.066747  -0.102691  -0.056616  -0.017695
   48  H 10  S   -0.003660   0.006767  -0.040134  -0.034102   0.026312

                     11         12         13         14         15
                   -0.5182    -0.4650    -0.4290    -0.3328    -0.2951
                     A          A          A          A          A   
    1  H  1  S    0.113183  -0.045468  -0.043827   0.123078   0.114739
    2  H  1  S    0.072382  -0.008726  -0.066234   0.117472   0.124728
    3  O  2  S   -0.020058  -0.049939   0.007011   0.040687   0.038034
    4  O  2  S    0.035361   0.111832  -0.007355  -0.095155  -0.088134
    5  O  2  X   -0.049561  -0.049446   0.172477   0.326523  -0.074841
    6  O  2  Y   -0.257292  -0.236180   0.186963   0.005704   0.331512
    7  O  2  Z   -0.155263   0.188757  -0.006918  -0.222320  -0.203961
    8  O  2  S    0.092949   0.197490  -0.029193  -0.140194  -0.131253
    9  O  2  X   -0.013394  -0.022132   0.089277   0.234542  -0.044067
   10  O  2  Y   -0.116657  -0.132352   0.100111   0.021159   0.256518
   11  O  2  Z   -0.093117   0.116583  -0.002402  -0.144336  -0.152103
   12  C  3  S   -0.009718   0.027945   0.014281  -0.035485   0.013492
   13  C  3  S   -0.001388  -0.055507  -0.024311   0.072169  -0.020472
   14  C  3  X    0.230031   0.056577   0.017031   0.045067  -0.080347
   15  C  3  Y    0.114190  -0.003716  -0.154544  -0.076795  -0.141465
   16  C  3  Z    0.130025   0.220350  -0.225875   0.170413   0.173569
   17  C  3  S    0.060500  -0.082063  -0.028169   0.131699  -0.161021
   18  C  3  X    0.078322   0.010289   0.057871   0.085689  -0.040862
   19  C  3  Y   -0.025194  -0.013788  -0.036777   0.050804  -0.014376
   20  C  3  Z    0.070649   0.129543  -0.141934   0.031529   0.102661
   21  C  4  S    0.019572  -0.029892  -0.000170   0.040022  -0.011721
   22  C  4  S   -0.035569   0.039418  -0.002920  -0.089746   0.022695
   23  C  4  X   -0.096108   0.051739  -0.006953   0.062189   0.146404
   24  C  4  Y    0.048480   0.258479   0.288850  -0.010136   0.073722
   25  C  4  Z    0.308957  -0.150841   0.106516  -0.094863   0.056591
   26  C  4  S   -0.082654   0.145949  -0.033278  -0.140214   0.061210
   27  C  4  X   -0.020507   0.022400   0.075279   0.094305   0.029782
   28  C  4  Y    0.051263   0.082909   0.119695  -0.109905   0.024458
   29  C  4  Z    0.107726  -0.049612   0.072553  -0.046125   0.054600
   30  O  5  S   -0.007328   0.005460  -0.040289  -0.027294   0.041470
   31  O  5  S    0.015449  -0.022882   0.086003   0.067013  -0.096660
   32  O  5  X   -0.077291   0.116022   0.184238   0.356031  -0.272515
   33  O  5  Y    0.037123  -0.229967  -0.105718   0.030479  -0.102240
   34  O  5  Z    0.213016  -0.012771   0.255226  -0.071484  -0.079386
   35  O  5  S    0.038890  -0.007959   0.162386   0.048747  -0.179310
   36  O  5  X   -0.046394   0.048513   0.094638   0.256356  -0.203396
   37  O  5  Y    0.026244  -0.108621  -0.054325   0.012935  -0.087168
   38  O  5  Z    0.113160  -0.017824   0.147170  -0.031310  -0.064729
   39  H  6  S   -0.008483   0.103454   0.014939  -0.074120   0.121545
   40  H  6  S    0.008098   0.110189   0.023588  -0.051636   0.067514
   41  H  7  S   -0.017042  -0.075136  -0.058120  -0.051893  -0.139319
   42  H  7  S    0.011743  -0.035246  -0.048115  -0.089848  -0.152225
   43  H  8  S    0.085745   0.089165  -0.153942   0.185071   0.121516
   44  H  8  S    0.037692   0.048253  -0.082022   0.186251   0.121876
   45  H  9  S    0.012738   0.148817   0.154142  -0.059912   0.154130
   46  H  9  S   -0.000240   0.098417   0.095054  -0.023858   0.161691
   47  H 10  S   -0.162947   0.107118  -0.065705   0.026275  -0.026051
   48  H 10  S   -0.099563   0.068848  -0.036927   0.063816  -0.006891

                     16         17         18         19         20
                   -0.2834    -0.2381     0.0128     0.0597     0.1293
                     A          A          A          A          A   
    1  H  1  S    0.035647   0.021344   0.180212  -0.117647   0.081329
    2  H  1  S    0.054771   0.051086   1.063001  -0.483596   0.279955
    3  O  2  S    0.007831   0.014001   0.064395  -0.010355   0.007024
    4  O  2  S   -0.006185  -0.032104  -0.121734   0.016716   0.002858
    5  O  2  X   -0.299712   0.280746  -0.022573  -0.088625   0.087765
    6  O  2  Y    0.148062  -0.111020   0.035793   0.062781  -0.012746
    7  O  2  Z    0.006743  -0.016323   0.333877  -0.134014   0.022913
    8  O  2  S   -0.128622  -0.094547  -0.672112   0.138038  -0.160443
    9  O  2  X   -0.248133   0.237524  -0.028420  -0.092703   0.133111
   10  O  2  Y    0.104760  -0.103962   0.038709   0.000013  -0.067303
   11  O  2  Z    0.001863  -0.016172   0.453774  -0.175842  -0.036035
   12  C  3  S    0.007739   0.027241  -0.003223  -0.014280  -0.080500
   13  C  3  S   -0.022373  -0.076921   0.034148   0.024973   0.108239
   14  C  3  X    0.066494  -0.268799   0.018893   0.007939  -0.109510
   15  C  3  Y   -0.089967   0.058558  -0.097628   0.072624   0.150411
   16  C  3  Z    0.078623   0.052481   0.008254  -0.053740   0.178733
   17  C  3  S   -0.003814  -0.121291  -0.094925   0.278514   1.463598
   18  C  3  X   -0.002088  -0.089295  -0.011204  -0.125415  -0.194174
   19  C  3  Y   -0.128843  -0.053467  -0.153683   0.163464   0.279844
   20  C  3  Z   -0.008849   0.029071   0.000123  -0.190874   0.546390
   21  C  4  S   -0.012794   0.023102   0.011625  -0.018405  -0.055594
   22  C  4  S    0.028244  -0.057819   0.004445   0.044750   0.088081
   23  C  4  X   -0.184195   0.207742  -0.021085   0.062638   0.134129
   24  C  4  Y   -0.053500  -0.009840  -0.001567  -0.013138   0.207584
   25  C  4  Z   -0.151842  -0.133481   0.148937   0.051045  -0.030206
   26  C  4  S    0.096619  -0.159693  -0.241033   0.217869   0.919813
   27  C  4  X   -0.045149   0.035489  -0.037455   0.214923   0.340598
   28  C  4  Y    0.011552   0.016150   0.062984  -0.036013   0.589671
   29  C  4  Z    0.013356  -0.072564   0.285811   0.202322  -0.214073
   30  O  5  S   -0.031426   0.007404   0.023817   0.068036  -0.014081
   31  O  5  S    0.069060  -0.018464  -0.050583  -0.119860   0.036718
   32  O  5  X    0.054237  -0.252082   0.104069   0.146156  -0.069989
   33  O  5  Y    0.000403   0.081803   0.099982   0.261878  -0.040116
   34  O  5  Z    0.364302   0.367825  -0.022825   0.096742   0.037313
   35  O  5  S    0.137557  -0.007955  -0.205117  -0.804711   0.168869
   36  O  5  X    0.047302  -0.206042   0.130510   0.227737  -0.160790
   37  O  5  Y   -0.016763   0.090902   0.145279   0.316949  -0.083667
   38  O  5  Z    0.269633   0.301769  -0.060019   0.127815   0.022563
   39  H  6  S   -0.096766   0.021392   0.070633   0.218058   0.003808
   40  H  6  S   -0.140862   0.070835   0.404046   1.146891  -0.099697
   41  H  7  S   -0.138224   0.140715   0.016262  -0.020442  -0.010891
   42  H  7  S   -0.135071   0.241283   0.194219  -0.383380  -0.854839
   43  H  8  S    0.064015   0.010133  -0.073741   0.016501  -0.048111
   44  H  8  S    0.113100   0.057633  -0.205317   0.115168  -1.231509
   45  H  9  S   -0.136685   0.025215   0.002988  -0.081145  -0.037335
   46  H  9  S   -0.194921   0.070856  -0.029417  -0.410719  -1.205076
   47  H 10  S    0.193347   0.130984  -0.026591   0.039638   0.014590
   48  H 10  S    0.259257   0.205169   0.326576   0.155249  -0.407209

                     21         22         23         24         25
                    0.1446     0.1735     0.1940     0.2712     0.2886
                     A          A          A          A          A   
    1  H  1  S   -0.056869  -0.012928  -0.019095  -0.003440  -0.040085
    2  H  1  S   -0.269044  -0.193305   0.049446  -0.287613   0.038670
    3  O  2  S   -0.035364  -0.009449  -0.020840   0.054310  -0.008803
    4  O  2  S    0.067304   0.032261   0.054192  -0.046667  -0.017756
    5  O  2  X   -0.005379   0.001941   0.087863  -0.065484   0.078537
    6  O  2  Y    0.042620   0.060915  -0.011672  -0.176681  -0.033213
    7  O  2  Z   -0.071990  -0.094307   0.080572  -0.057483  -0.003831
    8  O  2  S    0.519918  -0.038321   0.161271  -1.513646   0.540818
    9  O  2  X    0.029516  -0.111873   0.166597  -0.393828   0.342227
   10  O  2  Y    0.156182   0.120388  -0.020721  -0.608053   0.084055
   11  O  2  Z   -0.128746  -0.190589   0.259159  -0.164681   0.003845
   12  C  3  S   -0.035517   0.052466   0.023385  -0.083766   0.083349
   13  C  3  S    0.038930  -0.075203  -0.055801   0.022751   0.035896
   14  C  3  X    0.085849   0.209627  -0.087672   0.053339  -0.105582
   15  C  3  Y    0.037890  -0.234534   0.153818  -0.033725  -0.029601
   16  C  3  Z    0.194829   0.116066  -0.266087  -0.153221   0.023834
   17  C  3  S    0.617643  -0.758371  -0.399978   2.943640  -3.123892
   18  C  3  X    0.454687   0.606637  -0.140691  -0.000427  -1.883770
   19  C  3  Y    0.331863  -1.054417   0.352854  -1.223824   0.879346
   20  C  3  Z    0.489885   0.231336  -1.112496  -1.202114   0.629992
   21  C  4  S    0.082123  -0.033234   0.027458   0.016607  -0.112551
   22  C  4  S   -0.087880   0.070716  -0.027604   0.035217  -0.016439
   23  C  4  X    0.004941   0.131558   0.106277   0.093206  -0.073874
   24  C  4  Y   -0.055688   0.181484   0.215669  -0.050976   0.059961
   25  C  4  Z    0.269673   0.080440   0.213828   0.077510   0.175366
   26  C  4  S   -1.574143   0.330140  -0.732601  -0.619231   4.182607
   27  C  4  X    0.156614   0.446156   0.201500   1.818562  -0.997281
   28  C  4  Y   -0.262569   1.042612   0.787952  -0.233797  -1.374856
   29  C  4  Z    0.623968   0.076550   0.834007   0.382571   1.588891
   30  O  5  S    0.001088   0.003648  -0.029636   0.041761   0.041062
   31  O  5  S   -0.008014  -0.033876   0.048987  -0.073163   0.001728
   32  O  5  X   -0.016602   0.015833  -0.109753  -0.021745   0.065487
   33  O  5  Y   -0.045375  -0.033167  -0.007465  -0.185252  -0.175136
   34  O  5  Z   -0.028204  -0.065115  -0.123352  -0.000395   0.031913
   35  O  5  S   -0.010355   0.223986   0.499797  -0.753840  -1.519205
   36  O  5  X   -0.008455  -0.086845  -0.239885  -0.032291   0.445981
   37  O  5  Y   -0.074877  -0.059963  -0.003031  -0.531564  -0.647504
   38  O  5  Z   -0.127375  -0.139228  -0.274791   0.093456   0.081155
   39  H  6  S   -0.020998   0.018559  -0.011582  -0.026480  -0.021306
   40  H  6  S   -0.135168   0.036668  -0.134026  -0.425196  -0.426802
   41  H  7  S    0.019987   0.057045  -0.049415   0.114038   0.003648
   42  H  7  S    0.111032   1.760616  -0.861012  -0.277464  -0.121197
   43  H  8  S   -0.077483   0.007121   0.047595   0.025461  -0.085873
   44  H  8  S   -1.058436  -0.020140   1.382106   0.210407   0.131710
   45  H  9  S   -0.015064  -0.073701  -0.039941   0.055089   0.100679
   46  H  9  S    0.403039  -1.400893  -0.943300  -0.348556  -0.310171
   47  H 10  S    0.095484   0.016019   0.007001  -0.016842   0.079846
   48  H 10  S    1.620612   0.159088   1.221527   0.386381   0.258274

                     26         27         28         29         30
                    0.3130     0.5599     0.6702     0.6735     0.7041
                     A          A          A          A          A   
    1  H  1  S    0.026526  -0.060380  -0.418910   0.542563   0.090932
    2  H  1  S    0.550494  -0.192609   0.530574  -0.420261  -0.193826
    3  O  2  S   -0.046372   0.005363   0.039307  -0.006595  -0.017887
    4  O  2  S    0.059436   0.019128  -0.087979   0.007073   0.050640
    5  O  2  X   -0.009287  -0.092588  -0.039028   0.108770   0.008861
    6  O  2  Y    0.136613  -0.072817  -0.012920   0.081692  -0.082510
    7  O  2  Z    0.184981  -0.031450  -0.217749   0.092572   0.117470
    8  O  2  S    1.202017  -0.341457  -0.257296   0.032180   0.174927
    9  O  2  X    0.107809  -0.258877  -0.362392   0.044118   0.145825
   10  O  2  Y    0.525042  -0.046163  -0.480693   0.199172   0.251022
   11  O  2  Z    0.461662   0.151139  -0.209724  -0.044808   0.079492
   12  C  3  S    0.008736  -0.021014  -0.016200   0.036250  -0.009174
   13  C  3  S    0.007057  -0.104156   0.425758  -0.279700  -0.033672
   14  C  3  X    0.173181  -0.431800  -0.492158  -0.419071   0.414503
   15  C  3  Y    0.088814   0.060641  -0.561395   0.405557   0.088351
   16  C  3  Z   -0.125320   0.471073  -0.510805   0.141484   0.169528
   17  C  3  S   -0.258762  -0.365822   0.364822   0.140490  -0.555973
   18  C  3  X    1.617299   0.525379   0.557772   0.640524  -0.571516
   19  C  3  Y    1.311321  -0.554148   0.062138  -0.886974   0.271861
   20  C  3  Z   -0.307754  -1.334734   1.024031   0.010959  -0.405322
   21  C  4  S   -0.009009  -0.020734  -0.005158  -0.035212  -0.012647
   22  C  4  S   -0.001424  -0.102954   0.244768   0.290948   0.348322
   23  C  4  X    0.224960   0.401449   0.129891  -0.469649   0.672611
   24  C  4  Y   -0.059082  -0.019560  -0.337626  -0.484359  -0.729886
   25  C  4  Z   -0.189527  -0.404725   0.040493   0.083323   0.413940
   26  C  4  S    0.106420  -0.234221  -0.177655  -0.022108   0.778235
   27  C  4  X    1.412694  -0.669494  -0.126813   0.818045  -0.569436
   28  C  4  Y   -1.074948  -0.241093   0.531089   1.150134   0.251363
   29  C  4  Z   -0.302592   1.421679  -0.127010   0.177941  -0.348126
   30  O  5  S    0.040567   0.017112   0.003803   0.030260   0.039482
   31  O  5  S   -0.053101  -0.039176   0.017761  -0.125832  -0.088888
   32  O  5  X   -0.069779   0.089044  -0.015634  -0.016839   0.035193
   33  O  5  Y   -0.111460  -0.041255  -0.169564  -0.065798  -0.182269
   34  O  5  Z    0.098188  -0.108809  -0.077005  -0.225994   0.158096
   35  O  5  S   -1.009169  -0.298745   0.017741  -0.050266  -0.247038
   36  O  5  X   -0.002747   0.287631   0.109331   0.114018   0.329262
   37  O  5  Y   -0.427303  -0.096483  -0.113536  -0.293868  -0.498457
   38  O  5  Z    0.308670  -0.146374   0.069768   0.113153   0.248399
   39  H  6  S    0.001384   0.054134  -0.444940  -0.304324  -0.230211
   40  H  6  S   -0.207663  -0.137509   0.483089   0.403611   0.253350
   41  H  7  S    0.059038   0.146870   0.075747   0.159114  -0.053886
   42  H  7  S    0.094419   0.066069   0.176759   0.421245  -0.393877
   43  H  8  S   -0.052144   0.180461  -0.002212  -0.300859   0.130780
   44  H  8  S    0.443568   0.366927  -0.642446   0.236284   0.317635
   45  H  9  S   -0.072315   0.143902   0.093045  -0.151826   0.205369
   46  H  9  S   -0.193682   0.012130  -0.344419  -0.710326  -0.117211
   47  H 10  S    0.039651   0.181875   0.057350   0.098958  -0.090213
   48  H 10  S   -0.645619   0.477372   0.028337   0.099055  -0.234973

                     31         32         33         34         35
                    0.7102     0.7429     0.7553     0.8187     0.8628
                     A          A          A          A          A   
    1  H  1  S    0.007286   0.426024  -0.457208   0.551407  -0.005822
    2  H  1  S    0.092567  -0.399568   0.488160  -0.845902   0.130310
    3  O  2  S    0.008291   0.024209  -0.034267   0.031563  -0.029819
    4  O  2  S   -0.035629  -0.200132   0.155495  -0.194054   0.107523
    5  O  2  X    0.198832  -0.359333   0.025214  -0.173191  -0.200358
    6  O  2  Y    0.161022   0.102048   0.295486  -0.055913  -0.138254
    7  O  2  Z   -0.120477   0.132807  -0.186431   0.207737   0.127438
    8  O  2  S   -0.314520   0.363733  -0.042487   0.156968   0.277920
    9  O  2  X   -0.070375   0.119385   0.031642   0.037253   0.500646
   10  O  2  Y   -0.029928   0.042335   0.287267  -0.141153   0.377576
   11  O  2  Z   -0.026267  -0.211826   0.226644  -0.192525  -0.181523
   12  C  3  S   -0.032363  -0.009082   0.033078  -0.032780   0.017366
   13  C  3  S    0.063940  -0.047812  -0.298184  -0.067784  -0.098382
   14  C  3  X    0.593658  -0.186806   0.038873   0.290515   0.026188
   15  C  3  Y    0.325594   0.120510   0.744056  -0.448778   0.152842
   16  C  3  Z   -0.381123  -0.412301   0.007992   0.056550  -0.391620
   17  C  3  S   -0.345616  -0.155538  -0.303625   0.540853  -0.510730
   18  C  3  X   -0.997884   0.710092   0.556420  -0.625085  -0.160041
   19  C  3  Y   -0.629953  -0.372506  -0.686674   0.671427  -0.144941
   20  C  3  Z    0.925654   1.385431   0.506137  -0.334641   0.870317
   21  C  4  S    0.043591  -0.000653   0.002603   0.043273   0.004371
   22  C  4  S   -0.158927  -0.101150  -0.087412  -0.110325   0.070583
   23  C  4  X    0.446166   0.372067  -0.023026   0.079660  -0.303514
   24  C  4  Y   -0.145550   0.264331   0.291388   0.358211  -0.408962
   25  C  4  Z   -0.517298   0.413664   0.063329  -0.417983  -0.565961
   26  C  4  S    0.361825  -0.225210  -0.087866  -0.513739   0.124052
   27  C  4  X   -0.821874  -1.003314  -0.230218  -0.297735   0.298548
   28  C  4  Y    0.649603  -0.693588  -0.499544  -0.374399   0.979749
   29  C  4  Z    1.090771  -1.360779  -0.649556   0.608027   1.116556
   30  O  5  S   -0.008254  -0.001485  -0.020249  -0.039504  -0.006191
   31  O  5  S    0.022760  -0.062279   0.121854   0.221222   0.002050
   32  O  5  X    0.090926   0.368249  -0.139099  -0.356023   0.213059
   33  O  5  Y   -0.002911  -0.018697  -0.102301  -0.031649   0.139506
   34  O  5  Z   -0.196440   0.035283  -0.016769  -0.082608   0.163920
   35  O  5  S    0.240812   0.397449  -0.178034  -0.205221   0.205183
   36  O  5  X   -0.082997  -0.141822   0.157507   0.132515  -0.286219
   37  O  5  Y    0.016203   0.200844   0.179288   0.295716  -0.143605
   38  O  5  Z   -0.055665   0.068939   0.028238  -0.052389  -0.307442
   39  H  6  S    0.042928   0.094766  -0.651686  -0.680511   0.125054
   40  H  6  S    0.013674  -0.329199   0.476983   0.863545  -0.148744
   41  H  7  S    0.000816   0.329722  -0.093315   0.166233   0.003065
   42  H  7  S    0.021192   0.425776   0.758620  -0.774596   0.355880
   43  H  8  S   -0.329933  -0.134397   0.107747  -0.118688   0.407237
   44  H  8  S   -0.475318  -0.508207  -0.346583   0.111560  -0.847254
   45  H  9  S   -0.153220   0.183028   0.218934   0.171586   0.616864
   46  H  9  S    0.060341   0.733341   0.246569   0.066146  -1.316867
   47  H 10  S    0.285857   0.098921  -0.237031  -0.233617  -0.499744
   48  H 10  S    0.554817  -0.667263  -0.315564   0.736297   1.356775

                     36         37         38         39         40
                    0.8796     0.9088     0.9592     0.9889     0.9975
                     A          A          A          A          A   
    1  H  1  S    0.236661   0.070521  -0.058624   0.256248  -0.175036
    2  H  1  S   -0.427845  -0.051523   0.083877  -0.673962   0.137101
    3  O  2  S    0.019697  -0.013938   0.009367   0.049037   0.004598
    4  O  2  S   -0.126108   0.164484  -0.106051  -0.419988  -0.128967
    5  O  2  X    0.122517   0.305697  -0.148804   0.328377  -0.209257
    6  O  2  Y   -0.307472   0.110131  -0.212336   0.449006   0.043012
    7  O  2  Z    0.244037   0.183040   0.040261   0.056877   0.013624
    8  O  2  S    0.046582  -0.272278   0.475902   0.012283  -0.113042
    9  O  2  X   -0.347040  -0.435251   0.186528  -0.561770   0.354292
   10  O  2  Y    0.267268  -0.036962   0.258959  -0.807926  -0.121587
   11  O  2  Z   -0.371854  -0.161290  -0.060352  -0.132279  -0.033637
   12  C  3  S   -0.035559   0.055590  -0.058947   0.000392  -0.023670
   13  C  3  S    0.093911  -0.236872   0.936706  -0.327170  -1.395806
   14  C  3  X   -0.331769   0.159079  -0.083272  -0.158341   0.018952
   15  C  3  Y    0.255921  -0.014016   0.138416   0.043913  -0.221797
   16  C  3  Z   -0.515759  -0.217792   0.137885   0.038958  -0.088703
   17  C  3  S   -0.448889   0.439538  -2.338863   1.023149   2.521100
   18  C  3  X    0.433048   0.103764   0.026523  -0.040901  -0.548652
   19  C  3  Y   -0.735920  -0.289382   0.009542  -0.294565   0.725132
   20  C  3  Z    1.087793   0.178284  -0.024489  -0.423507   0.324930
   21  C  4  S   -0.010334   0.062985   0.056752  -0.040052  -0.032089
   22  C  4  S    0.059673  -0.305350  -1.108822  -0.636010  -1.245697
   23  C  4  X    0.288545  -0.194463  -0.137246   0.036304   0.038370
   24  C  4  Y    0.208236   0.005813  -0.142823  -0.232124  -0.176606
   25  C  4  Z    0.003845   0.211117   0.118161  -0.071454   0.111336
   26  C  4  S    0.363497   0.427384   2.605077   0.725621   2.717227
   27  C  4  X   -0.696282  -0.000187   0.126850  -0.009987   0.307107
   28  C  4  Y   -0.614441  -0.075464   0.153123   0.336450   0.185082
   29  C  4  Z    0.053844  -0.106264  -0.265777   0.551428  -0.423438
   30  O  5  S    0.030587  -0.019453  -0.016504   0.000697   0.026852
   31  O  5  S   -0.122183   0.219435   0.103343  -0.030167  -0.269248
   32  O  5  X   -0.305016  -0.233406  -0.066512   0.043592   0.000721
   33  O  5  Y    0.075367   0.197843   0.156044  -0.141534  -0.068328
   34  O  5  Z   -0.051116  -0.070346  -0.104266   0.555012  -0.358145
   35  O  5  S   -0.300330  -0.307228  -0.374500  -0.095484  -0.154364
   36  O  5  X    0.637151   0.320442  -0.000164   0.035008  -0.001320
   37  O  5  Y   -0.207404  -0.078270  -0.121806   0.104297  -0.061846
   38  O  5  Z    0.078868  -0.015886   0.139758  -0.779999   0.546951
   39  H  6  S    0.047907   0.014816  -0.067118   0.019605   0.062661
   40  H  6  S   -0.098340   0.162410   0.041498  -0.082039  -0.210850
   41  H  7  S   -0.692713   0.440605  -0.507788  -0.309429  -0.129463
   42  H  7  S    1.408800  -0.099213   0.845806   0.064889  -1.032388
   43  H  8  S    0.412108   0.632549  -0.455147  -0.030738   0.153431
   44  H  8  S   -1.103896  -0.600631   0.848761  -0.039987  -1.039487
   45  H  9  S   -0.340048   0.404511   0.569909   0.129635  -0.121598
   46  H  9  S    0.688507  -0.180870  -1.090585  -0.617157  -0.818527
   47  H 10  S   -0.092615   0.753278   0.330558  -0.099887  -0.099547
   48  H 10  S    0.085047  -0.698078  -0.923860   0.201483  -0.813735

                     41         42         43         44         45
                    1.0316     1.0552     1.1142     1.2762     1.3106
                     A          A          A          A          A   
    1  H  1  S   -0.068839  -0.075576  -0.168668  -0.464864  -0.403029
    2  H  1  S   -0.295793   0.285044  -0.415883  -0.048312  -0.016297
    3  O  2  S   -0.007223  -0.009665   0.010869  -0.019053   0.002814
    4  O  2  S    0.044405  -0.007487  -0.208668   0.274590  -0.034579
    5  O  2  X   -0.140850   0.178743   0.518072   0.079503  -0.327267
    6  O  2  Y    0.181992  -0.651222   0.004089   0.000796   0.143899
    7  O  2  Z    0.391904  -0.073730   0.336533   0.504408   0.322706
    8  O  2  S   -0.027646   0.103781   0.372324  -0.331449  -0.710378
    9  O  2  X    0.328447  -0.287043  -0.861817  -0.233213   0.542287
   10  O  2  Y   -0.349018   1.096196  -0.049288   0.083458  -0.531172
   11  O  2  Z   -0.552316   0.113040  -0.610464  -1.345698  -0.766066
   12  C  3  S    0.032530  -0.041046   0.012266   0.065998  -0.025709
   13  C  3  S    0.413194  -0.635199  -0.153090   0.756641  -0.472806
   14  C  3  X    0.073157  -0.075459  -0.028020   0.010462   0.022887
   15  C  3  Y    0.114667  -0.064157  -0.047086   0.137155   0.004945
   16  C  3  Z    0.019968  -0.091833   0.167736   0.018786   0.084482
   17  C  3  S   -0.473765   1.011296   1.442602  -3.335987   1.975992
   18  C  3  X   -0.649108   0.799903   0.673028  -1.004343  -0.631838
   19  C  3  Y   -0.053463  -0.009023   0.331619  -1.377070  -0.534297
   20  C  3  Z   -0.452529   0.269933  -0.225237   1.708830  -0.676248
   21  C  4  S   -0.016082  -0.018249   0.006048  -0.073474   0.040711
   22  C  4  S    0.198322  -0.302048   0.195821  -1.006617   0.331517
   23  C  4  X   -0.111789  -0.021819  -0.006943   0.098262   0.006539
   24  C  4  Y   -0.087055   0.051471   0.162897  -0.072885   0.013931
   25  C  4  Z    0.018381   0.054507   0.015985  -0.034191  -0.060475
   26  C  4  S   -0.627239  -0.794014  -0.890170   3.763923  -0.335159
   27  C  4  X    0.251197   0.303744   0.669015  -1.834871   1.190817
   28  C  4  Y    0.486359   0.522899  -0.834956   0.896901   0.816183
   29  C  4  Z    0.342837  -0.296064  -0.803445   0.060635   1.353838
   30  O  5  S   -0.033003  -0.030194  -0.003373   0.014700  -0.011813
   31  O  5  S    0.336186   0.178334   0.054507  -0.297891   0.144707
   32  O  5  X    0.262716   0.266750   0.448688  -0.173607   0.100225
   33  O  5  Y   -0.619221  -0.241743   0.261066  -0.105316   0.552917
   34  O  5  Z   -0.155214   0.320643  -0.349869   0.138398   0.249530
   35  O  5  S   -0.179067   0.097051  -0.271824   0.457759  -0.190083
   36  O  5  X   -0.486282  -0.505385  -0.661640   0.423267  -0.384203
   37  O  5  Y    0.953738   0.518314  -0.434378   0.266063  -1.496224
   38  O  5  Z    0.113126  -0.596969   0.690594  -0.322127  -0.664401
   39  H  6  S   -0.063315  -0.382215  -0.208752   0.074423  -0.456900
   40  H  6  S    0.643398   0.750818  -0.077024  -0.013712  -0.413730
   41  H  7  S   -0.337797   0.114364  -0.094153   0.721119  -0.209460
   42  H  7  S    0.228651  -0.180148  -0.163136   0.464006  -0.286911
   43  H  8  S    0.384025  -0.127683  -0.130213  -0.218336  -0.087069
   44  H  8  S    0.101422  -0.273482   0.085958  -0.062792   0.033652
   45  H  9  S   -0.184003  -0.171125   0.228447  -0.365535  -0.476745
   46  H  9  S   -0.021865  -0.087711   0.253487  -0.243898  -0.290527
   47  H 10  S    0.299181   0.291565  -0.365962  -0.419886   0.478069
   48  H 10  S    0.124282  -0.458814   0.019355  -0.238540   0.393613

                     46         47         48
                    1.5652     1.7946     1.9849
                     A          A          A   
    1  H  1  S    0.450710   0.339403  -0.360532
    2  H  1  S    0.184564  -0.113560   0.224041
    3  O  2  S   -0.001974  -0.014579  -0.000790
    4  O  2  S    0.079784   1.392779  -1.303267
    5  O  2  X    0.007648   0.090119  -0.068963
    6  O  2  Y    0.039172   0.133419  -0.120546
    7  O  2  Z   -0.315720   0.032716   0.012540
    8  O  2  S    0.736744  -3.374555   3.424169
    9  O  2  X    0.302953  -0.576747   0.840141
   10  O  2  Y    0.095400  -1.165154   1.051125
   11  O  2  Z    1.071953  -0.116334   0.127774
   12  C  3  S    0.100462  -0.018522   0.036439
   13  C  3  S    1.346431  -0.146031   0.504722
   14  C  3  X    0.065819  -0.027469   0.343682
   15  C  3  Y   -0.017826  -0.281192   0.180859
   16  C  3  Z    0.009343  -0.085984   0.091134
   17  C  3  S   -5.875439   3.874340  -2.951206
   18  C  3  X   -1.814045  -0.391520   0.197825
   19  C  3  Y    0.824241  -0.538067   1.056667
   20  C  3  Z   -0.517189  -0.847128   0.042979
   21  C  4  S   -0.095764   0.016348   0.032829
   22  C  4  S   -1.313593   0.095347   0.455100
   23  C  4  X    0.019954  -0.006177  -0.333828
   24  C  4  Y   -0.014375   0.257847   0.195590
   25  C  4  Z    0.040557  -0.105655  -0.091814
   26  C  4  S    6.335560  -3.439585  -2.941727
   27  C  4  X   -0.586269   0.050135  -0.308946
   28  C  4  Y   -0.251413   0.508066   1.316152
   29  C  4  Z    1.359555  -0.228740  -0.107253
   30  O  5  S    0.001163   0.013602   0.002214
   31  O  5  S    0.042164  -1.205316  -1.485082
   32  O  5  X    0.308002   0.170025   0.065088
   33  O  5  Y    0.234409  -0.057016  -0.092096
   34  O  5  Z   -0.021958   0.094871   0.034529
   35  O  5  S   -1.302259   2.783830   3.858821
   36  O  5  X   -0.531540  -0.786318  -0.972143
   37  O  5  Y   -1.101677   0.665493   0.873340
   38  O  5  Z    0.106997  -0.546487  -0.535133
   39  H  6  S   -0.479975  -0.397197  -0.339718
   40  H  6  S   -0.140163   0.144824   0.071065
   41  H  7  S    0.175945  -0.394593   0.211687
   42  H  7  S    0.021005  -0.523688  -0.097391
   43  H  8  S    0.776860  -0.141038   0.296945
   44  H  8  S    0.618862  -0.056088   0.480371
   45  H  9  S   -0.620830   0.217821   0.136285
   46  H  9  S   -0.503751   0.384201  -0.081925
   47  H 10  S   -0.246749   0.296272   0.348458
   48  H 10  S   -0.308061   0.151179   0.424963
 ...... END OF RHF CALCULATION ......
 STEP CPU TIME =     7.01 TOTAL CPU TIME =          7.1 (      0.1 MIN)
 TOTAL WALL CLOCK TIME=          7.2 SECONDS, CPU UTILIZATION IS    98.20%

     ---------------------------------------------------------------------
     PROPERTIES FOR THE B3LYP    DFT FUNCTIONAL (RHF  TYPE) DENSITY MATRIX
     ---------------------------------------------------------------------

          -----------------
          ENERGY COMPONENTS
          -----------------

         WAVEFUNCTION NORMALIZATION =       1.0000000000

                ONE ELECTRON ENERGY =    -604.0635089188
                TWO ELECTRON ENERGY =     227.2404054504
           NUCLEAR REPULSION ENERGY =     146.9367784367
                                      ------------------
                       TOTAL ENERGY =    -229.8863250317

 ELECTRON-ELECTRON POTENTIAL ENERGY =     227.2404054504
  NUCLEUS-ELECTRON POTENTIAL ENERGY =    -834.4359271176
   NUCLEUS-NUCLEUS POTENTIAL ENERGY =     146.9367784367
                                      ------------------
             TOTAL POTENTIAL ENERGY =    -460.2587432304
               TOTAL KINETIC ENERGY =     230.3724181987
                 VIRIAL RATIO (V/T) =       1.9978899680

          ---------------------------------------
          MULLIKEN AND LOWDIN POPULATION ANALYSES
          ---------------------------------------

     ATOMIC MULLIKEN POPULATION IN EACH MOLECULAR ORBITAL

                      1          2          3          4          5

                  2.000000   2.000000   2.000000   2.000000   2.000000

    1             0.000141  -0.000001   0.000006   0.000037   0.027072
    2             1.997201  -0.000007   0.000127   0.000227   0.993192
    3             0.002688   0.000064   0.236572   1.760948   0.294253
    4             0.000035   0.002671   1.760331   0.236977   0.197672
    5            -0.000005   1.997164   0.000395  -0.000008   0.464611
    6             0.000007   0.000168   0.000047  -0.000000   0.013393
    7            -0.000030   0.000002   0.000206   0.000794   0.000176
    8            -0.000032  -0.000007   0.000250   0.000910   0.005282
    9             0.000001  -0.000013   0.000981   0.000058   0.000825
   10            -0.000007  -0.000041   0.001084   0.000056   0.003523

                      6          7          8          9         10

                  2.000000   2.000000   2.000000   2.000000   2.000000

    1             0.017459   0.041255   0.196073   0.039528   0.044669
    2             0.545560   0.241787   0.557470   0.222897   0.451848
    3             0.104786   0.646248   0.357493   0.244731   0.725568
    4             0.256980   0.589850   0.344933   0.503646   0.179594
    5             1.038793   0.224719   0.234732   0.675103   0.239226
    6             0.025490   0.050383   0.049218   0.232516   0.001141
    7             0.003457   0.051377   0.011405   0.016021   0.312682
    8             0.000499   0.055955   0.086412   0.006857   0.028449
    9             0.005048   0.066514   0.069045   0.025867   0.014737
   10             0.001929   0.031913   0.093219   0.032835   0.002085

                     11         12         13         14         15

                  2.000000   2.000000   2.000000   2.000000   2.000000

    1             0.081251   0.009108   0.028459   0.082987   0.068702
    2             0.407496   0.571924   0.243791   0.728531   0.690106
    3             0.373509   0.259462   0.342796   0.165087   0.214701
    4             0.569712   0.435357   0.416420   0.107482   0.114969
    5             0.287573   0.241006   0.570164   0.604161   0.455946
    6             0.000472   0.106861   0.002688   0.021715   0.062920
    7             0.001629   0.036531   0.030427   0.024143   0.135240
    8             0.059319   0.063259   0.163108   0.233381   0.093846
    9             0.000985   0.182847   0.173594   0.018109   0.160673
   10             0.218054   0.093646   0.028552   0.014404   0.002896

                     16         17

                  2.000000   2.000000

    1             0.013776   0.010308
    2             0.469833   0.389022
    3             0.101086   0.213112
    4             0.173864   0.170910
    5             0.613286   0.859389
    6             0.067898   0.013993
    7             0.122987   0.173868
    8             0.036558   0.009004
    9             0.134331   0.011411
   10             0.266382   0.148983

               ----- POPULATIONS IN EACH AO -----
                             MULLIKEN      LOWDIN
              1  H  1  S      0.44750     0.43070
              2  H  1  S      0.21333     0.28581
              3  O  2  S      1.99723     1.99357
              4  O  2  S      0.89936     0.85809
              5  O  2  X      1.12423     1.09712
              6  O  2  Y      1.03531     0.99966
              7  O  2  Z      0.83318     0.77448
              8  O  2  S      0.98117     0.67939
              9  O  2  X      0.65790     0.70303
             10  O  2  Y      0.48877     0.63065
             11  O  2  Z      0.49386     0.58686
             12  C  3  S      1.99683     1.98580
             13  C  3  S      0.70491     0.55268
             14  C  3  X      0.78429     0.72980
             15  C  3  Y      0.71057     0.65319
             16  C  3  Z      0.76827     0.69431
             17  C  3  S      0.47769     0.37826
             18  C  3  X      0.15111     0.34668
             19  C  3  Y      0.12659     0.34350
             20  C  3  Z      0.32285     0.42844
             21  C  4  S      1.99685     1.98581
             22  C  4  S      0.70520     0.55398
             23  C  4  X      0.79092     0.73756
             24  C  4  Y      0.73171     0.67614
             25  C  4  Z      0.73415     0.65281
             26  C  4  S      0.48846     0.37781
             27  C  4  X      0.18090     0.35006
             28  C  4  Y      0.18797     0.35770
             29  C  4  Z      0.24523     0.41201
             30  O  5  S      1.99720     1.99349
             31  O  5  S      0.89576     0.85263
             32  O  5  X      1.04766     1.01491
             33  O  5  Y      0.83366     0.77643
             34  O  5  Z      1.11814     1.09042
             35  O  5  S      0.98221     0.67629
             36  O  5  X      0.61868     0.68384
             37  O  5  Y      0.35404     0.50669
             38  O  5  Z      0.65890     0.73830
             39  H  6  S      0.44117     0.42542
             40  H  6  S      0.20774     0.28644
             41  H  7  S      0.55304     0.54994
             42  H  7  S      0.36787     0.39771
             43  H  8  S      0.53910     0.52754
             44  H  8  S      0.30395     0.36274
             45  H  9  S      0.54342     0.53183
             46  H  9  S      0.32160     0.36872
             47  H 10  S      0.55358     0.55053
             48  H 10  S      0.38593     0.41023

          ----- MULLIKEN ATOMIC OVERLAP POPULATIONS -----
          (OFF-DIAGONAL ELEMENTS NEED TO BE MULTIPLIED BY 2)

             1           2           3           4           5

    1    0.4811894
    2    0.2382775   8.3290816
    3   -0.0741357   0.1730966   5.2038650
    4   -0.0072585  -0.1037670   0.2915649   5.1933197
    5   -0.0008431  -0.0180614  -0.1005048   0.1899971   8.3269878
    6   -0.0001983   0.0437361  -0.0370712  -0.0668639   0.2450552
    7   -0.0121685  -0.0835234   0.3424749  -0.0699782   0.0098811
    8    0.0132622  -0.0612183   0.3668970  -0.0504398  -0.0008157
    9    0.0005039   0.0092228  -0.0547355   0.3474722  -0.0590800
   10    0.0221999  -0.0158403  -0.0683455   0.3373560  -0.0863625

             6           7           8           9          10

    6    0.4634126
    7    0.0023619   0.7612498
    8   -0.0023917  -0.0383967   0.6102592
    9    0.0135995   0.0051611  -0.0037777   0.6498403
   10   -0.0127301   0.0038537   0.0096722  -0.0431910   0.7929005

          TOTAL MULLIKEN AND LOWDIN ATOMIC POPULATIONS
       ATOM         MULL.POP.    CHARGE          LOW.POP.     CHARGE
    1 H1            0.660829    0.339171         0.716513    0.283487
    2 O2            8.511004   -0.511004         8.322856   -0.322856
    3 C3            6.043106   -0.043106         6.112658   -0.112658
    4 C4            6.061402   -0.061402         6.103880   -0.103880
    5 O5            8.506254   -0.506254         8.333003   -0.333003
    6 H6            0.648910    0.351090         0.711860    0.288140
    7 H7            0.920916    0.079084         0.947649    0.052351
    8 H8            0.843051    0.156949         0.890275    0.109725
    9 H9            0.865015    0.134985         0.900547    0.099453
   10 H10           0.939513    0.060487         0.960759    0.039241

          -------------------------------
          BOND ORDER AND VALENCE ANALYSIS     BOND ORDER THRESHOLD=0.050
          -------------------------------

                   BOND                       BOND                       BOND
  ATOM PAIR DIST  ORDER      ATOM PAIR DIST  ORDER      ATOM PAIR DIST  ORDER
    1   2  1.100  0.790        2   3  1.200  0.893        2   6  2.128  0.062
    3   4  1.400  0.917        3   7  1.100  0.926        3   8  1.100  0.906
    4   5  1.200  0.928        4   9  1.100  0.914        4  10  1.100  0.909
    5   6  1.100  0.762

                       TOTAL       BONDED        FREE
      ATOM            VALENCE     VALENCE     VALENCE
    1 H1                0.861       0.861       0.000
    2 O2                1.772       1.772       0.000
    3 C3                3.611       3.611      -0.000
    4 C4                3.654       3.654       0.000
    5 O5                1.750       1.750       0.000
    6 H6                0.861       0.861       0.000
    7 H7                0.939       0.939       0.000
    8 H8                0.935       0.935       0.000
    9 H9                0.937       0.937       0.000
   10 H10               0.943       0.943      -0.000

          ---------------------
          ELECTROSTATIC MOMENTS
          ---------------------

 POINT   1           X           Y           Z (BOHR)    CHARGE
                -0.000000   -0.000000   -0.000000       -0.00 (A.U.)
         DX          DY          DZ         /D/  (DEBYE)
    -0.969321    0.150934   -1.915369    2.151977
 ...... END OF PROPERTY EVALUATION ......
 STEP CPU TIME =     0.01 TOTAL CPU TIME =          7.1 (      0.1 MIN)
 TOTAL WALL CLOCK TIME=          7.2 SECONDS, CPU UTILIZATION IS    98.34%

 BEGINNING ONE ELECTRON GRADIENT...
 ..... END OF 1-ELECTRON GRADIENT ......
 STEP CPU TIME =     0.01 TOTAL CPU TIME =          7.1 (      0.1 MIN)
 TOTAL WALL CLOCK TIME=          7.2 SECONDS, CPU UTILIZATION IS    98.34%

          ----------------------
          GRADIENT OF THE ENERGY
          ----------------------
 MEMORY FOR GRID POINT CONTRIBUTIONS TO THE DFT GRADIENT=    358115 WORDS.
 STEP CPU TIME =     1.67 TOTAL CPU TIME =          8.8 (      0.1 MIN)
 TOTAL WALL CLOCK TIME=          8.9 SECONDS, CPU UTILIZATION IS    98.21%
 THE COARSE/FINE SCHWARZ SCREENINGS SKIPPED         2211/        2457 BLOCKS.
 THE NUMBER OF GRADIENT INTEGRAL BLOCKS COMPUTED WAS     40362
 ...... END OF 2-ELECTRON GRADIENT ......
 STEP CPU TIME =     0.10 TOTAL CPU TIME =          8.9 (      0.1 MIN)
 TOTAL WALL CLOCK TIME=          9.0 SECONDS, CPU UTILIZATION IS    98.23%

          NSERCH=  0     ENERGY=    -229.8863250

                                 -----------------------
                                 GRADIENT (HARTREE/BOHR)
                                 -----------------------
        ATOM     ZNUC       DE/DX         DE/DY         DE/DZ
 --------------------------------------------------------------
    1  H1           1.0     0.0025860     0.0047671    -0.0645330
    2  O2           8.0     0.1664798     0.2756962     0.1431274
    3  C3           6.0    -0.0327924    -0.2556552    -0.0875029
    4  C4           6.0     0.0303391    -0.2236984     0.1022716
    5  O5           8.0    -0.1372068     0.3006369    -0.0864563
    6  H6           1.0    -0.0353010    -0.0523756    -0.0249277
    7  H7           1.0    -0.0023686    -0.0220857    -0.0073397
    8  H8           1.0    -0.0018810    -0.0044183    -0.0012721
    9  H9           1.0    -0.0008790    -0.0051250     0.0056215
   10  H10          1.0     0.0110241    -0.0177419     0.0210113

          MAXIMUM GRADIENT = 0.3006369    RMS GRADIENT = 0.1135368

 NSERCH:   0  E=     -229.8863250317  GRAD. MAX=  0.3006369  R.M.S.=  0.1135368

          FORCE CONSTANT MATRIX NOT UPDATED --- TAKING FIRST STEP
          MIN SEARCH, CORRECT HESSIAN, TRYING PURE NR STEP
               NR STEP HAS LENGTH         =   0.883593
          TRIM/QA LAMBDA FOR NON-TS MODES =  -0.86825907
          TRIM/QA STEP HAS LENGTH         =   0.300000
          RADIUS OF STEP TAKEN=   0.30000  CURRENT TRUST RADIUS=   0.30000

 BEGINNING GEOMETRY SEARCH POINT NSERCH=   1 ...

 COORDINATES OF ALL ATOMS ARE (ANGS)
   ATOM   CHARGE       X              Y              Z
 ------------------------------------------------------------
 H1          1.0  -1.2982624751  -0.5281595698  -1.1300419155
 O2          8.0  -1.2616154117  -0.5438099395  -0.0939297812
 C3          6.0  -0.6425543156   0.5924481650   0.2740645234
 C4          6.0   0.6539327313   0.5578720622  -0.3021650541
 O5          8.0   1.2839403231  -0.5173684277   0.1804042510
 H6          1.0   0.7192823427  -1.3431815788  -0.0805480024
 H7          1.0  -1.2034889727   1.4241640213  -0.1035720019
 H8          1.0  -0.5829938976   0.5979986746   1.3549311181
 H9          1.0   1.1936641594   1.4397606606  -0.0209538316
 H10         1.0   0.6060264649   0.4472608435  -1.3864145470

 THE CURRENT FULLY SUBSTITUTED Z-MATRIX IS
 H1  
 O2     1   1.0368781
 C3     2   1.3452654  1   106.0729670
 C4     3   1.4191951  2   106.7827697  1   -60.5005885  0
 O5     4   1.3363850  3   107.6770818  2   -60.3299633  0
 H6     5   1.0338772  4   107.1007904  3    59.2011015  0
 H7     3   1.0719180  2   108.5530153  1    58.9153002  0
 H8     3   1.0825206  2   107.6246286  1  -179.5236067  0
 H9     4   1.0715023  5   109.2672262  6   178.0338247  0
 H10    4   1.0909293  5   107.3382799  6   -60.9182914  0

          INTERNUCLEAR DISTANCES (ANGS.)
          ------------------------------

[...]
   20  C  3  Z   -0.028742   0.006876  -0.160848   0.033514   0.171825
   21  C  4  S   -0.022306   0.010174   0.013330   0.082491  -0.035206
   22  C  4  S    0.045217  -0.019450  -0.007333  -0.132802   0.033968
   23  C  4  X   -0.219155   0.092794   0.010686  -0.136159  -0.016207
   24  C  4  Y   -0.030507  -0.026730  -0.078466   0.070051   0.210177
   25  C  4  Z   -0.034587  -0.149344   0.094408   0.051908  -0.127275
   26  C  4  S    0.147060  -0.086540  -0.252696  -1.145081   0.786702
   27  C  4  X   -0.081636   0.024227   0.004655  -0.474743  -0.101757
   28  C  4  Y    0.055748   0.025899  -0.138155   0.156541   0.505998
   29  C  4  Z    0.062605  -0.014280   0.225328   0.125332  -0.396700
   30  O  5  S   -0.021402   0.001477   0.031024  -0.068049  -0.061663
   31  O  5  S    0.045001  -0.006062  -0.061704   0.107994   0.120263
   32  O  5  X    0.045037  -0.168878   0.123932  -0.163204  -0.161592
   33  O  5  Y   -0.003784   0.120506   0.014033  -0.008142  -0.060267
   34  O  5  Z    0.228543   0.532204  -0.004686  -0.104764  -0.017484
   35  O  5  S    0.115323   0.007908  -0.321254   0.864256   0.716697
   36  O  5  X    0.031103  -0.134757   0.173854  -0.286105  -0.295511
   37  O  5  Y   -0.020373   0.104604   0.037648   0.052424  -0.076135
   38  O  5  Z    0.162755   0.409750  -0.009317  -0.172684  -0.027330
   39  H  6  S   -0.046129   0.001866   0.035779  -0.115294  -0.086747
   40  H  6  S   -0.088909   0.018265   0.359548  -0.748807  -0.776189
   41  H  7  S   -0.097594   0.058054   0.023464  -0.013407  -0.047700
   42  H  7  S   -0.102080   0.124295   0.397522   0.841352  -0.619810
   43  H  8  S   -0.023076   0.032013  -0.014258   0.018476   0.013912
   44  H  8  S   -0.006676   0.087913   0.132256   0.435822  -0.457160
   45  H  9  S   -0.102723  -0.040049   0.049697   0.000123   0.025693
   46  H  9  S   -0.173145  -0.048789   0.227552   0.575241  -0.486956
   47  H 10  S    0.069720   0.147439  -0.031720   0.024762  -0.045278
   48  H 10  S    0.080660   0.215527   0.296726   0.716872  -0.788547

                     21         22         23         24         25
                    0.1335     0.1507     0.1596     0.1929     0.2230
                     A          A          A          A          A   
    1  H  1  S   -0.038237  -0.026297  -0.003236  -0.041245  -0.008163
    2  H  1  S   -0.353540   0.015201  -0.296446  -0.552805   0.424402
    3  O  2  S    0.012640   0.007033   0.010047   0.018572  -0.029675
    4  O  2  S   -0.036592  -0.018456  -0.012521  -0.006412   0.047048
    5  O  2  X   -0.082825  -0.047037  -0.070162  -0.068808   0.149677
    6  O  2  Y   -0.136632  -0.090415  -0.128118  -0.226449   0.089435
    7  O  2  Z   -0.078277   0.025241  -0.103009  -0.143311   0.141964
    8  O  2  S   -0.063864  -0.047098  -0.112183  -0.378360   0.403925
    9  O  2  X   -0.129519  -0.011966  -0.159332  -0.227742   0.336649
   10  O  2  Y   -0.203250  -0.132660  -0.162983  -0.428666   0.276963
   11  O  2  Z   -0.101881   0.036992  -0.251424  -0.246390   0.265503
   12  C  3  S    0.037013  -0.091934  -0.036645  -0.036593   0.079573
   13  C  3  S   -0.032831   0.113182   0.069093   0.051281  -0.076160
   14  C  3  X   -0.106360  -0.133421   0.020342  -0.094426  -0.053375
   15  C  3  Y   -0.120338   0.148227  -0.247340  -0.185923   0.236439
   16  C  3  Z   -0.282710  -0.083522   0.195362  -0.176825  -0.042893
   17  C  3  S   -0.831271   1.480118   0.476965   0.395538  -1.267660
   18  C  3  X   -0.338068  -0.205456   0.107032  -0.288886  -0.572650
   19  C  3  Y   -0.201228   0.633890  -0.578527  -0.743320   1.045357
   20  C  3  Z   -0.690006  -0.265214   0.764053  -0.786598  -0.076902
   21  C  4  S   -0.014350   0.099989  -0.015772   0.004118  -0.104917
   22  C  4  S   -0.003061  -0.127327   0.041512   0.020113   0.113591
   23  C  4  X   -0.120062  -0.068637  -0.027414   0.130089   0.067962
   24  C  4  Y   -0.106151  -0.127091  -0.254523   0.103400  -0.189961
   25  C  4  Z   -0.213163   0.049145  -0.034416   0.304256   0.138629
   26  C  4  S    0.305850  -1.645764   0.064267  -0.145736   1.636173
   27  C  4  X   -0.374647  -0.095960  -0.010503   0.619644  -0.103915
   28  C  4  Y   -0.331996  -0.628604  -0.623437   0.421845  -1.074903
   29  C  4  Z   -0.449817   0.174222  -0.273854   0.970659   0.716266
   30  O  5  S   -0.006452  -0.009073   0.007149  -0.002989   0.035504
   31  O  5  S    0.012777   0.024568  -0.017120   0.004518  -0.030082
   32  O  5  X    0.002865  -0.062788   0.034904  -0.040652   0.042180
   33  O  5  Y   -0.022483   0.028484  -0.249366  -0.153830  -0.325334
   34  O  5  Z    0.010857   0.010160   0.075537  -0.073595   0.085150
   35  O  5  S    0.059804   0.040651  -0.021358   0.079185  -0.649636
   36  O  5  X    0.021592  -0.037490   0.046765  -0.098271   0.212549
   37  O  5  Y   -0.013187   0.037969  -0.405624  -0.298462  -0.697754
   38  O  5  Z    0.073399  -0.004499   0.132210  -0.121753   0.153853
   39  H  6  S   -0.028429  -0.011265  -0.067531  -0.034291  -0.058418
   40  H  6  S   -0.153775  -0.102615  -0.670230  -0.447480  -0.603750
   41  H  7  S   -0.022088  -0.062877   0.087813   0.032258   0.018386
   42  H  7  S   -0.040782  -1.496933   0.908878   0.001652  -0.603561
   43  H  8  S    0.103854  -0.011047  -0.057255   0.049104  -0.048692
   44  H  8  S    1.388061  -0.267103  -1.200980   0.603157   0.593353
   45  H  9  S    0.080946   0.065898   0.076602   0.015461   0.027270
   46  H  9  S    0.859061   1.248657   0.805048  -1.047642  -0.161259
   47  H 10  S   -0.078072   0.024386   0.014524   0.035517   0.049618
   48  H 10  S   -0.935194   0.863914  -0.271852   1.213849   0.114742

                     26         27
                    0.2397     0.5408
                     A          A   
    1  H  1  S   -0.045392  -0.073105
    2  H  1  S   -0.232358   0.163658
    3  O  2  S    0.005713   0.004695
    4  O  2  S   -0.031127  -0.108947
    5  O  2  X    0.032942  -0.183155
    6  O  2  Y   -0.038595  -0.156836
    7  O  2  Z   -0.107997   0.016395
    8  O  2  S    0.043380   0.652216
    9  O  2  X    0.115218   0.088932
   10  O  2  Y   -0.083041   0.222544
   11  O  2  Z   -0.211283   0.068659
   12  C  3  S    0.068603  -0.021741
   13  C  3  S   -0.037561   0.228145
   14  C  3  X   -0.325429  -0.562325
   15  C  3  Y   -0.060052  -0.575144
   16  C  3  Z    0.188612  -0.054813
   17  C  3  S   -1.481719  -0.774192
   18  C  3  X   -1.589957   0.783509
   19  C  3  Y    0.039146   0.975161
   20  C  3  Z    0.756818   0.128983
   21  C  4  S   -0.058666  -0.020378
   22  C  4  S    0.014007   0.082764
   23  C  4  X   -0.358744   0.551517
   24  C  4  Y    0.080649  -0.238225
   25  C  4  Z    0.197254  -0.055557
   26  C  4  S    1.381408  -0.287464
   27  C  4  X   -1.656484  -0.851871
   28  C  4  Y    0.031936   0.111440
   29  C  4  Z    0.656491   0.094028
   30  O  5  S   -0.008914   0.006023
   31  O  5  S    0.031992  -0.052743
   32  O  5  X    0.087902   0.101321
   33  O  5  Y    0.114964  -0.077331
   34  O  5  Z   -0.057617   0.018491
   35  O  5  S   -0.001712   0.211027
   36  O  5  X    0.203762   0.044867
   37  O  5  Y    0.222346   0.084865
   38  O  5  Z   -0.147844  -0.052658
   39  H  6  S   -0.011854  -0.039390
   40  H  6  S    0.353990   0.155611
   41  H  7  S   -0.061380  -0.074261
   42  H  7  S   -0.130966  -0.069919
   43  H  8  S   -0.040195   0.010894
   44  H  8  S   -0.406572   0.019610
   45  H  9  S    0.048410  -0.016174
   46  H  9  S    0.190848   0.034203
   47  H 10  S    0.031481   0.045082
   48  H 10  S    0.388901   0.028187

     ---------------------------------------------------------------------
     PROPERTIES FOR THE B3LYP    DFT FUNCTIONAL (RHF  TYPE) DENSITY MATRIX
     ---------------------------------------------------------------------

          -----------------
          ENERGY COMPONENTS
          -----------------

         WAVEFUNCTION NORMALIZATION =       1.0000000000

                ONE ELECTRON ENERGY =    -575.1069682653
                TWO ELECTRON ENERGY =     213.1493396133
           NUCLEAR REPULSION ENERGY =     131.9122749223
                                      ------------------
                       TOTAL ENERGY =    -230.0453537297

 ELECTRON-ELECTRON POTENTIAL ENERGY =     213.1493396133
  NUCLEUS-ELECTRON POTENTIAL ENERGY =    -804.0185324761
   NUCLEUS-NUCLEUS POTENTIAL ENERGY =     131.9122749223
                                      ------------------
             TOTAL POTENTIAL ENERGY =    -458.9569179405
               TOTAL KINETIC ENERGY =     228.9115642108
                 VIRIAL RATIO (V/T) =       2.0049529587

          ---------------------------------------
          MULLIKEN AND LOWDIN POPULATION ANALYSES
          ---------------------------------------

     ATOMIC MULLIKEN POPULATION IN EACH MOLECULAR ORBITAL

                      1          2          3          4          5

                  2.000000   2.000000   2.000000   2.000000   2.000000

    1             0.000385  -0.000000   0.000045  -0.000001   0.100107
    2             1.998557  -0.000001   0.000530   0.000004   1.300585
    3             0.001071  -0.000001   1.994963   0.002156   0.188931
    4             0.000007   0.001179   0.002174   1.995007   0.071793
    5            -0.000000   1.998406   0.000005   0.000509   0.300657
    6             0.000011   0.000437   0.000008   0.000041   0.022787
    7            -0.000011   0.000000   0.001040   0.000011   0.003098
    8            -0.000018  -0.000001   0.001214   0.000007   0.007671
    9             0.000000  -0.000009   0.000011   0.001151   0.001201
   10            -0.000002  -0.000011   0.000011   0.001115   0.003171

                      6          7          8          9         10

                  2.000000   2.000000   2.000000   2.000000   2.000000

    1             0.032793   0.043325   0.078893   0.173768   0.046747
    2             0.357260   0.165064   0.243425   0.557782   0.244707
    3             0.020141   0.744410   0.445169   0.516821   0.389054
    4             0.155490   0.620533   0.551397   0.173285   0.500987
    5             1.332675   0.148031   0.209154   0.267997   0.356722
    6             0.093464   0.034981   0.063361   0.069047   0.098183
    7             0.000626   0.070018   0.067609   0.212575   0.069363
    8             0.000259   0.066009   0.104377   0.010235   0.101319
    9             0.005968   0.059022   0.120738   0.002697   0.050752
   10             0.001324   0.048607   0.115875   0.015793   0.142167

                     11         12         13         14         15

                  2.000000   2.000000   2.000000   2.000000   2.000000

    1             0.023447   0.031652   0.021238   0.083028   0.003338
    2             0.294075   0.288577   0.250463   1.097536   0.358249
    3             0.658238   0.151452   0.443644   0.245146   0.114538
    4             0.424923   0.656229   0.440136   0.050704   0.118643
    5             0.244662   0.403718   0.241330   0.134982   1.241822
    6             0.044572   0.101356   0.000034   0.000923   0.074863
    7             0.143533   0.002668   0.002229   0.204043   0.002014
    8             0.050556   0.021532   0.290278   0.147762   0.001430
    9             0.010597   0.289262   0.141547   0.009093   0.064381
   10             0.105399   0.053553   0.169101   0.026782   0.020722

                     16         17

                  2.000000   2.000000

    1             0.000028   0.001623
    2             1.305126   0.144683
    3             0.064892   0.091376
    4             0.169271   0.084000
    5             0.264505   1.462883
    6             0.027107   0.001273
    7             0.058434   0.032164
    8             0.002361   0.017737
    9             0.083421   0.008046
   10             0.024852   0.156213

               ----- POPULATIONS IN EACH AO -----
                             MULLIKEN      LOWDIN
              1  H  1  S      0.50894     0.47585
              2  H  1  S      0.13147     0.24304
              3  O  2  S      1.99717     1.99368
              4  O  2  S      0.90703     0.88552
              5  O  2  X      1.07424     1.04290
              6  O  2  Y      0.92889     0.88902
              7  O  2  Z      0.89302     0.83264
              8  O  2  S      1.00905     0.74791
              9  O  2  X      0.70476     0.74687
             10  O  2  Y      0.59074     0.68365
             11  O  2  Z      0.50173     0.60915
             12  C  3  S      1.99683     1.98707
             13  C  3  S      0.68465     0.56848
             14  C  3  X      0.69987     0.64464
             15  C  3  Y      0.61492     0.55438
             16  C  3  Z      0.74869     0.67669
             17  C  3  S      0.59602     0.42849
             18  C  3  X      0.20886     0.38764
             19  C  3  Y      0.17346     0.36120
             20  C  3  Z      0.34870     0.45260
             21  C  4  S      1.99679     1.98692
             22  C  4  S      0.68467     0.56607
             23  C  4  X      0.70255     0.64502
             24  C  4  Y      0.64112     0.58634
             25  C  4  Z      0.72824     0.64849
             26  C  4  S      0.57167     0.42453
             27  C  4  X      0.19205     0.38556
             28  C  4  Y      0.21266     0.36714
             29  C  4  Z      0.28600     0.44511
             30  O  5  S      1.99718     1.99365
             31  O  5  S      0.90558     0.88208
             32  O  5  X      0.97322     0.93177
             33  O  5  Y      0.80486     0.74452
             34  O  5  Z      1.12438     1.09691
             35  O  5  S      1.01280     0.74113
             36  O  5  X      0.63304     0.70426
             37  O  5  Y      0.41417     0.53938
             38  O  5  Z      0.74283     0.79494
             39  H  6  S      0.49966     0.46836
             40  H  6  S      0.13279     0.25070
             41  H  7  S      0.54303     0.52492
             42  H  7  S      0.32638     0.37809
             43  H  8  S      0.53989     0.52231
             44  H  8  S      0.28284     0.35632
             45  H  9  S      0.54205     0.52258
             46  H  9  S      0.30583     0.36391
             47  H 10  S      0.54430     0.52999
             48  H 10  S      0.34037     0.38759

          ----- MULLIKEN ATOMIC OVERLAP POPULATIONS -----
          (OFF-DIAGONAL ELEMENTS NEED TO BE MULTIPLIED BY 2)

             1           2           3           4           5

    1    0.4440641
    2    0.2296020   8.2818997
    3   -0.0361530   0.2186092   5.0600992
    4   -0.0001527  -0.0635488   0.2695704   5.0135450
    5    0.0003158  -0.0094280  -0.0493030   0.2440595   8.2723033
    6   -0.0010689   0.0283723  -0.0115841  -0.0490758   0.2354229
    7   -0.0068570  -0.0373669   0.3260213  -0.0388500   0.0038354
    8    0.0068624  -0.0425013   0.3721596  -0.0466110   0.0013286
    9   -0.0000714   0.0039059  -0.0283324   0.3471434  -0.0413273
   10    0.0038750  -0.0029202  -0.0490857   0.3396774  -0.0491493

             6           7           8           9          10

    6    0.4246448
    7    0.0011337   0.6549806
    8   -0.0013024  -0.0362790   0.5664523
    9    0.0075513   0.0026761  -0.0039929   0.6100239
   10   -0.0016455   0.0001214   0.0066106  -0.0496978   0.6868875

          TOTAL MULLIKEN AND LOWDIN ATOMIC POPULATIONS
       ATOM         MULL.POP.    CHARGE          LOW.POP.     CHARGE
    1 H1            0.640416    0.359584         0.718890    0.281110
    2 O2            8.606624   -0.606624         8.431345   -0.431345
    3 C3            6.072002   -0.072002         6.061177   -0.061177
    4 C4            6.015757   -0.015757         6.055182   -0.055182
    5 O5            8.608058   -0.608058         8.428638   -0.428638
    6 H6            0.632448    0.367552         0.719059    0.280941
    7 H7            0.869416    0.130584         0.903005    0.096995
    8 H8            0.822727    0.177273         0.878633    0.121367
    9 H9            0.847879    0.152121         0.886497    0.113503
   10 H10           0.884674    0.115326         0.917573    0.082427

          -------------------------------
          BOND ORDER AND VALENCE ANALYSIS     BOND ORDER THRESHOLD=0.050
          -------------------------------

                   BOND                       BOND                       BOND
  ATOM PAIR DIST  ORDER      ATOM PAIR DIST  ORDER      ATOM PAIR DIST  ORDER
    1   2  0.980  0.805        2   3  1.467  0.874        2   6  2.272  0.051
    3   4  1.523  0.926        3   7  1.098  0.922        3   8  1.092  0.934
    4   5  1.448  0.910        4   9  1.094  0.929        4  10  1.104  0.921
    5   6  0.983  0.777

                       TOTAL       BONDED        FREE
      ATOM            VALENCE     VALENCE     VALENCE
    1 H1                0.829       0.829      -0.000
    2 O2                1.753       1.753       0.000
    3 C3                3.667       3.667       0.000
    4 C4                3.679       3.679      -0.000
    5 O5                1.738       1.738       0.000
    6 H6                0.843       0.843       0.000
    7 H7                0.930       0.930       0.000
    8 H8                0.926       0.926       0.000
    9 H9                0.930       0.930       0.000
   10 H10               0.929       0.929       0.000

          ---------------------
          ELECTROSTATIC MOMENTS
          ---------------------

 POINT   1           X           Y           Z (BOHR)    CHARGE
                 0.047312   -0.107678   -0.080740        0.00 (A.U.)
         DX          DY          DZ         /D/  (DEBYE)
    -1.809128    1.644982   -1.760656    3.013108
 ...... END OF PROPERTY EVALUATION ......
 STEP CPU TIME =     0.01 TOTAL CPU TIME =        165.8 (      2.8 MIN)
 TOTAL WALL CLOCK TIME=        168.2 SECONDS, CPU UTILIZATION IS    98.59%
  $VIB   
          IVIB=   0 IATOM=   0 ICOORD=   0 E=     -230.0453537297
  2.870895241E-06 7.355308232E-06 3.142390292E-05-9.375821715E-06-6.225533886E-05
 -4.926765045E-05 9.976707203E-05 4.156091970E-05-2.719121046E-05-4.965245514E-05
  3.436516600E-05 1.601124293E-05-2.437909224E-05-6.152534933E-05 8.353049057E-06
  5.241625800E-06 4.642444599E-05 6.527777106E-06 8.781863534E-06-7.409547843E-06
  1.120362487E-05-2.825656111E-06 3.386957112E-06-6.390830351E-06-1.453399374E-05
 -1.971854769E-06-1.343978524E-05-1.589443765E-05 6.929376877E-08 2.276987961E-05
 -1.809127958E+00 1.644981716E+00-1.760656220E+00
 ......END OF GEOMETRY SEARCH......
 STEP CPU TIME =     0.00 TOTAL CPU TIME =        165.8 (      2.8 MIN)
 TOTAL WALL CLOCK TIME=        168.2 SECONDS, CPU UTILIZATION IS    98.59%
               580000  WORDS OF DYNAMIC MEMORY USED
 EXECUTION OF GAMESS TERMINATED NORMALLY Sun Mar  1 14:00:23 2020
 DDI: 263640 bytes (0.3 MB / 0 MWords) used by master data server.

 ----------------------------------------
 CPU timing information for all processes
 ========================================
 0: 164.845 + 1.07 = 165.853
 1: 0.01 + 0.01 = 0.03
 ----------------------------------------
 ddikick.x: exited gracefully.
unset echo
----- accounting info -----
Files used on the master node Vusals-MacBook-Pro.local were:
-rw-r--r--@ 1 wurthel  staff      847 Mar  1 13:57 .//Ethylene_glycol.F05
-rw-r--r--  1 wurthel  staff  7920704 Mar  1 14:00 .//Ethylene_glycol.F08
-rw-r--r--@ 1 wurthel  staff  1865040 Mar  1 14:00 .//Ethylene_glycol.F10
-rw-r--r--  1 wurthel  staff  2766720 Mar  1 14:00 .//Ethylene_glycol.F22
-rw-r--r--  1 wurthel  staff   385314 Mar  1 14:00 .//Ethylene_glycol.dat
-rw-r--r--@ 1 wurthel  staff      847 Mar  1 13:57 .//Ethylene_glycol.inp
-rw-r--r--  1 wurthel  staff   262682 Mar  1 14:00 .//Ethylene_glycol.log
ls: No match.
ls: No match.
ls: No match.
Sun Mar  1 14:00:26 MSK 2020
164.914u 1.079s 2:51.40 96.8%	0+0k 0+0io 0pf+0w
