----- GAMESS execution script 'rungms' -----
This job is running on host vusals-mbp
under operating system Darwin at Sat Feb 8 21:38:06 MSK 2020
Available scratch disk space (Kbyte units) at beginning of the job is
Filesystem   1024-blocks     Used Available Capacity iused               ifree %iused  Mounted on
/dev/disk1s5   118181844 44219704  69551120    39%  989830 9223372036853785977    0%   /
GAMESS temporary binary files will be written to ./
GAMESS supplementary output files will be written to ./
Copying input file Ethylene_glycol.inp to your run's scratch directory...
cp Ethylene_glycol.inp .//Ethylene_glycol.F05
unset echo
.//ddikick.x .//gamess.30Sep2018R3.x Ethylene_glycol -ddi 1 1 vusals-mbp -scr ./

 Distributed Data Interface kickoff program.
 Initiating 1 compute processes on 1 nodes to run the following command:
 .//gamess.30Sep2018R3.x Ethylene_glycol 

          ******************************************************
          *         GAMESS VERSION = 30 SEP 2018 (R3)         *
          *             FROM IOWA STATE UNIVERSITY             *
          * M.W.SCHMIDT, K.K.BALDRIDGE, J.A.BOATZ, S.T.ELBERT, *
          *   M.S.GORDON, J.H.JENSEN, S.KOSEKI, N.MATSUNAGA,   *
          *          K.A.NGUYEN, S.J.SU, T.L.WINDUS,           *
          *       TOGETHER WITH M.DUPUIS, J.A.MONTGOMERY       *
          *         J.COMPUT.CHEM.  14, 1347-1363(1993)        *
          **************** 64 BIT APPLE VERSION ****************

  SINCE 1993, STUDENTS AND POSTDOCS WORKING AT IOWA STATE UNIVERSITY
  AND ALSO IN THEIR VARIOUS JOBS AFTER LEAVING ISU HAVE MADE IMPORTANT
  CONTRIBUTIONS TO THE CODE:
     IVANA ADAMOVIC, CHRISTINE AIKENS, YURI ALEXEEV, POOJA ARORA,
     ANDREY ASADCHEV, ROB BELL, PRADIPTA BANDYOPADHYAY, JONATHAN BENTZ,
     BRETT BODE, KURT BRORSEN, CALEB CARLIN, GALINA CHABAN, WEI CHEN,
     CHEOL HO CHOI, PAUL DAY, ALBERT DEFUSCO, NUWAN DESILVA, TIM DUDLEY,
     DMITRI FEDOROV, ALEX FINDLATER, GRAHAM FLETCHER, MARK FREITAG,
     KURT GLAESEMANN, ANASTASIA GUNINA,
     DAN KEMP, GRANT MERRILL, NORIYUKI MINEZAWA, JONATHAN MULLIN,
     TAKESHI NAGATA, SEAN NEDD, HEATHER NETZLOFF, BOSILJKA NJEGIC, RYAN OLSON,
     MIKE PAK, BUU PHAM,
     SPENCER PRUITT, LUKE ROSKOP, JIM SHOEMAKER, LYUDMILA SLIPCHENKO,
     TONY SMITH, SAROM SOK LEANG, JIE SONG, TETSUYA TAKETSUGU, SIMON WEBB,
     PENG XU, SOOHAENG YOO, FEDERICO ZAHARIEV

  ADDITIONAL CODE HAS BEEN PROVIDED BY COLLABORATORS IN OTHER GROUPS:
     IOWA STATE UNIVERSITY:
          JOE IVANIC, AARON WEST, LAIMUTIS BYTAUTAS, KLAUS RUEDENBERG
     UNIVERSITY OF TOKYO: KIMIHIKO HIRAO, TAKAHITO NAKAJIMA,
          TAKAO TSUNEDA, MUNEAKI KAMIYA, SUSUMU YANAGISAWA,
          KIYOSHI YAGI, MAHITO CHIBA, SEIKEN TOKURA, NAOAKI KAWAKAMI
     UNIVERSITY OF AARHUS: FRANK JENSEN
     UNIVERSITY OF IOWA: VISVALDAS KAIRYS, HUI LI
     NATIONAL INST. OF STANDARDS AND TECHNOLOGY: WALT STEVENS, DAVID GARMER
     UNIVERSITY OF PISA: BENEDETTA MENNUCCI, JACOPO TOMASI
     UNIVERSITY OF MEMPHIS: HENRY KURTZ, PRAKASHAN KORAMBATH
     UNIVERSITY OF ALBERTA: TOBY ZENG, MARIUSZ KLOBUKOWSKI
     UNIVERSITY OF NEW ENGLAND: MARK SPACKMAN
     MIE UNIVERSITY: HIROAKI UMEDA
     NAT. INST. OF ADVANCED INDUSTRIAL SCIENCE AND TECHNOLOGY: KAZUO KITAURA
     MICHIGAN STATE UNIVERSITY:
          KAROL KOWALSKI, MARTA WLOCH, JEFFREY GOUR, JESSE LUTZ,
          WEI LI, JUN SHEN, J. EMILIANO DEUSTUA, PIOTR PIECUCH
     UNIVERSITY OF MINNESOTA:
          YINAN SHU
     UNIVERSITY OF SILESIA: MONIKA MUSIAL, STANISLAW KUCHARSKI
     FACULTES UNIVERSITAIRES NOTRE-DAME DE LA PAIX:
          OLIVIER QUINET, BENOIT CHAMPAGNE
     UNIVERSITY OF CALIFORNIA - SANTA BARBARA: BERNARD KIRTMAN
     INSTITUTE FOR MOLECULAR SCIENCE:
          KAZUYA ISHIMURA, MICHIO KATOUDA, AND SHIGERU NAGASE
     UNIVERSITY OF NOTRE DAME: ANNA POMOGAEVA, DAN CHIPMAN
     KYUSHU UNIVERSITY:
          HARUYUKI NAKANO,
          FENG LONG GU, JACEK KORCHOWIEC, MARCIN MAKOWSKI, AND YURIKO AOKI,
          HIROTOSHI MORI AND EISAKU MIYOSHI
     PENNSYLVANIA STATE UNIVERSITY:
          TZVETELIN IORDANOV, CHET SWALINA, JONATHAN SKONE,
          SHARON HAMMES-SCHIFFER
     WASEDA UNIVERSITY:
          MASATO KOBAYASHI, TOMOKO AKAMA, TSUGUKI TOUMA,
          TAKESHI YOSHIKAWA, YASUHIRO IKABATA, JUNJI SEINO,
          YUYA NAKAJIMA, HIROMI NAKAI
     NANJING UNIVERSITY: SHUHUA LI
     UNIVERSITY OF NEBRASKA:
          PEIFENG SU, DEJUN SI, NANDUN THELLAMUREGE, YALI WANG, HUI LI
     UNIVERSITY OF ZURICH: ROBERTO PEVERATI, KIM BALDRIDGE
     N. COPERNICUS UNIVERSITY AND JACKSON STATE UNIVERSITY:
          MARIA BARYSZ
     UNIVERSITY OF COPENHAGEN: Jimmy Kromann, CASPER STEINMANN
     TOKYO INSTITUTE OF TECHNOLOGY: HIROYA NAKATA
     NAGOYA UNIVERSITY: YOSHIO NISHIMOTO, STEPHAN IRLE
     MOSCOW STATE UNIVERSITY: VLADIMIR MIRONOV

 EXECUTION OF GAMESS BEGUN Sat Feb  8 21:38:06 2020

            ECHO OF THE FIRST FEW INPUT CARDS -
 INPUT CARD>!   File created by the GAMESS Input Deck Generator Plugin for Avogadro         
 INPUT CARD> $BASIS GBASIS=N31 NGAUSS=6 NDFUNC=0 $END                                       
 INPUT CARD> $CONTRL SCFTYP=RHF RUNTYP=OPTIMIZE DFTTYP=B3LYP $END                           
 INPUT CARD> $STATPT OPTTOL=0.0001 NSTEP=20 $END                                            
 INPUT CARD>                                                                                
 INPUT CARD> $DATA                                                                          
 INPUT CARD>Title                                                                           
 INPUT CARD>C1                                                                              
 INPUT CARD>O     8.0    -1.35494    -0.61909    -0.18858                                   
 INPUT CARD>O     8.0     1.44085    -0.58044     0.06264                                   
 INPUT CARD>C     6.0    -0.67990     0.55014     0.27974                                   
 INPUT CARD>C     6.0     0.72217     0.59114    -0.31698                                   
 INPUT CARD>H     1.0    -1.26169     1.43425     0.00386                                   
 INPUT CARD>H     1.0    -0.63067     0.47879     1.37036                                   
 INPUT CARD>H     1.0     1.27427     1.46796     0.03174                                   
 INPUT CARD>H     1.0     0.67706     0.60733    -1.41021                                   
 INPUT CARD>H     1.0    -1.53248    -0.49150    -1.13729                                   
 INPUT CARD>H     1.0     0.78663    -1.30698     0.06902                                   
 INPUT CARD> $END                                                                           
    1000000 WORDS OF MEMORY AVAILABLE

     BASIS OPTIONS
     -------------
     GBASIS=N31          IGAUSS=       6      POLAR=NONE    
     NDFUNC=       0     NFFUNC=       0     DIFFSP=       F
     NPFUNC=       0      DIFFS=       F     BASNAM=        


     RUN TITLE
     ---------
 Title                                                                           

 THE POINT GROUP OF THE MOLECULE IS C1      
 THE ORDER OF THE PRINCIPAL AXIS IS     0

 ATOM      ATOMIC                      COORDINATES (BOHR)
           CHARGE         X                   Y                   Z
 O           8.0    -2.5604653298       -1.1699104617       -0.3563645268
 O           8.0     2.7228116894       -1.0968725523        0.1183724359
 C           6.0    -1.2848246991        1.0396138549        0.5286319478
 C           6.0     1.3647034166        1.1170926204       -0.5990053436
 H           1.0    -2.3842483814        2.7103394979        0.0072943423
 H           1.0    -1.1917934887        0.9047819057        2.5896049045
 H           1.0     2.4080211344        2.7740421609        0.0599799029
 H           1.0     1.2794578772        1.1476872841       -2.6649104851
 H           1.0    -2.8959672817       -0.9288003230       -2.1491664686
 H           1.0     1.4865151537       -2.4698340714        0.1304288877

          INTERNUCLEAR DISTANCES (ANGS.)
          ------------------------------

                1 O          2 O          3 C          4 C          5 H     

   1 O       0.0000000    2.8073203 *  1.4290211 *  2.4073905 *  2.0644452 *
   2 O       2.8073203 *  0.0000000    2.4130736 *  1.4259074 *  3.3713726  
   3 C       1.4290211 *  2.4130736 *  0.0000000    1.5243215 *  1.0937275 *
   4 C       2.4073905 *  1.4259074 *  1.5243215 *  0.0000000    2.1793286 *
   5 H       2.0644452 *  3.3713726    1.0937275 *  2.1793286 *  0.0000000  
   6 H       2.0396572 *  2.6689501 *  1.0940596 *  2.1656211 *  1.7828102 *
   7 H       3.3640844    2.0553944 *  2.1731723 *  1.0932673 *  2.5363373 *
   8 H       2.6693651 *  2.0404558 *  2.1680734 *  1.0942801 *  2.5381375 *
   9 H       0.9735760 *  3.2075588    1.9544515 *  2.6321977 *  2.2547868 *
  10 H       2.2640390 *  0.9777039 *  2.3757121 *  1.9380430 *  3.4226017  

                6 H          7 H          8 H          9 H         10 H     

   1 O       2.0396572 *  3.3640844    2.6693651 *  0.9735760 *  2.2640390 *
   2 O       2.6689501 *  2.0553944 *  2.0404558 *  3.2075588    0.9777039 *
   3 C       1.0940596 *  2.1731723 *  2.1680734 *  1.9544515 *  2.3757121 *
   4 C       2.1656211 *  1.0932673 *  1.0942801 *  2.6321977 *  1.9380430 *
   5 H       1.7828102 *  2.5363373 *  2.5381375 *  2.2547868 *  3.4226017  
   6 H       0.0000000    2.5296555 *  3.0754268    2.8360241 *  2.6251094 *
   7 H       2.5296555 *  0.0000000    1.7822917 *  3.6171757    2.8177073 *
   8 H       3.0754268    1.7822917 *  0.0000000    2.4827363 *  2.4217163 *
   9 H       2.8360241 *  3.6171757    2.4827363 *  0.0000000    2.7383321 *
  10 H       2.6251094 *  2.8177073 *  2.4217163 *  2.7383321 *  0.0000000  

  * ... LESS THAN  3.000


     ATOMIC BASIS SET
     ----------------
 THE CONTRACTED PRIMITIVE FUNCTIONS HAVE BEEN UNNORMALIZED
 THE CONTRACTED BASIS FUNCTIONS ARE NOW NORMALIZED TO UNITY

  SHELL TYPE  PRIMITIVE        EXPONENT          CONTRACTION COEFFICIENT(S)

 O         

      1   S       1          5484.6716600    0.001831074430
      1   S       2           825.2349460    0.013950172200
      1   S       3           188.0469580    0.068445078098
      1   S       4            52.9645000    0.232714335992
      1   S       5            16.8975704    0.470192897984
      1   S       6             5.7996353    0.358520852987

      2   L       7            15.5396162   -0.110777549525    0.070874268231
      2   L       8             3.5999336   -0.148026262701    0.339752839147
      2   L       9             1.0137618    1.130767015354    0.727158577316

      3   L      10             0.2700058    1.000000000000    1.000000000000

 O         

      4   S      11          5484.6716600    0.001831074430
      4   S      12           825.2349460    0.013950172200
      4   S      13           188.0469580    0.068445078098
      4   S      14            52.9645000    0.232714335992
      4   S      15            16.8975704    0.470192897984
      4   S      16             5.7996353    0.358520852987

      5   L      17            15.5396162   -0.110777549525    0.070874268231
      5   L      18             3.5999336   -0.148026262701    0.339752839147
      5   L      19             1.0137618    1.130767015354    0.727158577316

      6   L      20             0.2700058    1.000000000000    1.000000000000

 C         

      7   S      21          3047.5248800    0.001834737132
      7   S      22           457.3695180    0.014037322813
      7   S      23           103.9486850    0.068842622264
      7   S      24            29.2101553    0.232184443216
      7   S      25             9.2866630    0.467941348435
      7   S      26             3.1639270    0.362311985337

      8   L      27             7.8682723   -0.119332419775    0.068999066591
      8   L      28             1.8812885   -0.160854151696    0.316423960957
      8   L      29             0.5442493    1.143456437840    0.744308290898

      9   L      30             0.1687145    1.000000000000    1.000000000000

 C         

     10   S      31          3047.5248800    0.001834737132
     10   S      32           457.3695180    0.014037322813
     10   S      33           103.9486850    0.068842622264
     10   S      34            29.2101553    0.232184443216
     10   S      35             9.2866630    0.467941348435
     10   S      36             3.1639270    0.362311985337

     11   L      37             7.8682723   -0.119332419775    0.068999066591
     11   L      38             1.8812885   -0.160854151696    0.316423960957
     11   L      39             0.5442493    1.143456437840    0.744308290898

     12   L      40             0.1687145    1.000000000000    1.000000000000

 H         

     13   S      41            18.7311370    0.033494604338
     13   S      42             2.8253944    0.234726953484
     13   S      43             0.6401217    0.813757326146

     14   S      44             0.1612778    1.000000000000

 H         

     15   S      45            18.7311370    0.033494604338
     15   S      46             2.8253944    0.234726953484
     15   S      47             0.6401217    0.813757326146

     16   S      48             0.1612778    1.000000000000

 H         

     17   S      49            18.7311370    0.033494604338
     17   S      50             2.8253944    0.234726953484
     17   S      51             0.6401217    0.813757326146

     18   S      52             0.1612778    1.000000000000

 H         

     19   S      53            18.7311370    0.033494604338
     19   S      54             2.8253944    0.234726953484
     19   S      55             0.6401217    0.813757326146

     20   S      56             0.1612778    1.000000000000

 H         

     21   S      57            18.7311370    0.033494604338
     21   S      58             2.8253944    0.234726953484
     21   S      59             0.6401217    0.813757326146

     22   S      60             0.1612778    1.000000000000

 H         

     23   S      61            18.7311370    0.033494604338
     23   S      62             2.8253944    0.234726953484
     23   S      63             0.6401217    0.813757326146

     24   S      64             0.1612778    1.000000000000

 TOTAL NUMBER OF BASIS SET SHELLS             =   24
 NUMBER OF CARTESIAN GAUSSIAN BASIS FUNCTIONS =   48
 NUMBER OF ELECTRONS                          =   34
 CHARGE OF MOLECULE                           =    0
 SPIN MULTIPLICITY                            =    1
 NUMBER OF OCCUPIED ORBITALS (ALPHA)          =   17
 NUMBER OF OCCUPIED ORBITALS (BETA )          =   17
 TOTAL NUMBER OF ATOMS                        =   10
 THE NUCLEAR REPULSION ENERGY IS      133.4353072640

     LEBEDEV GRID-BASED DFT OPTIONS
     ------------------------------
     DFTTYP=B3LYP   
     NRAD  =      96     NLEB  =     302
     NRAD0 =      24     NLEB0 =     110
     SWOFF =    5.00E-03 (PURE SCF -> DFT)
     SWITCH=    3.00E-04 (COARSE -> TIGHT GRID)
     THRESH=    0.00E+00 GTHRE=    1.00E+00

 GRIMME'S EMPIRICAL DISPERSION CORRECTION= F

     $CONTRL OPTIONS
     ---------------
 SCFTYP=RHF          RUNTYP=OPTIMIZE     EXETYP=RUN     
 MPLEVL=       0     CITYP =NONE         CCTYP =NONE         VBTYP =NONE    
 DFTTYP=B3LYP        TDDFT =NONE    
 MULT  =       1     ICHARG=       0     NZVAR =       0     COORD =UNIQUE  
 PP    =NONE         RELWFN=NONE         LOCAL =NONE         NUMGRD=       F
 ISPHER=      -1     NOSYM =       0     MAXIT =      30     UNITS =ANGS    
 PLTORB=       F     MOLPLT=       F     AIMPAC=       F     FRIEND=        
 NPRINT=       7     IREST =       0     GEOM  =INPUT   
 NORMF =       0     NORMP =       0     ITOL  =      20     ICUT  =       9
 INTTYP=BEST         GRDTYP=BEST         QMTTOL= 1.0E-06

     $SYSTEM OPTIONS
     ---------------
  REPLICATED MEMORY=     1000000 WORDS (ON EVERY NODE).
 DISTRIBUTED MEMDDI=           0 MILLION WORDS IN AGGREGATE,
 MEMDDI DISTRIBUTED OVER   1 PROCESSORS IS           0 WORDS/PROCESSOR.
 TOTAL MEMORY REQUESTED ON EACH PROCESSOR=     1000000 WORDS.
 TIMLIM=      525600.00 MINUTES, OR     365.0 DAYS.
 PARALL= F  BALTYP=  DLB     KDIAG=    0  COREFL= F
 MXSEQ2=     300 MXSEQ3=     150  mem10=         0

          ----------------
          PROPERTIES INPUT
          ----------------

     MOMENTS            FIELD           POTENTIAL          DENSITY
 IEMOM =       1   IEFLD =       0   IEPOT =       0   IEDEN =       0
 WHERE =COMASS     WHERE =NUCLEI     WHERE =NUCLEI     WHERE =NUCLEI  
 OUTPUT=BOTH       OUTPUT=BOTH       OUTPUT=BOTH       OUTPUT=BOTH    
 IEMINT=       0   IEFINT=       0                     IEDINT=       0
                                                       MORB  =       0
          EXTRAPOLATION IN EFFECT
          DIIS IN EFFECT
 ORBITAL PRINTING OPTION: NPREO=     1    48     2     1

     -------------------------------
     INTEGRAL TRANSFORMATION OPTIONS
     -------------------------------
     NWORD  =            0
     CUTOFF = 1.0E-09     MPTRAN =       0
     DIRTRF =       F     AOINTS =DUP     

          ----------------------
          INTEGRAL INPUT OPTIONS
          ----------------------
 NOPK  =       1 NORDER=       0 SCHWRZ=       T

     ------------------------------------------
     THE POINT GROUP IS C1 , NAXIS= 0, ORDER= 1
     ------------------------------------------

     DIMENSIONS OF THE SYMMETRY SUBSPACES ARE
 A   =   48

 ..... DONE SETTING UP THE RUN .....
 STEP CPU TIME =     0.01 TOTAL CPU TIME =          0.0 (      0.0 MIN)
 TOTAL WALL CLOCK TIME=          0.0 SECONDS, CPU UTILIZATION IS    20.00%


          -----------------------------
          STATIONARY POINT LOCATION RUN
          -----------------------------

 OBTAINING INITIAL HESSIAN, HESS=GUESS   
 CARTESIAN COORDINATE OPTIMIZATION USING BADGER'S RULE FORCE CONSTANT GUESS

          PARAMETERS CONTROLLING GEOMETRY SEARCH ARE
          METHOD =QA                  UPHESS =BFGS    
          NNEG   =         0          NFRZ   =         0
          NSTEP  =        20          IFOLOW =         1
          HESS   =GUESS               RESTAR =         F
          IHREP  =         0          HSSEND =         F
          NPRT   =         0          NPUN   =         0
          OPTTOL = 1.000E-04          RMIN   = 1.500E-03
          RMAX   = 1.000E-01          RLIM   = 7.000E-02
          DXMAX  = 3.000E-01          PURIFY =         F
          MOVIE  =         F          TRUPD  =         T
          TRMAX  = 5.000E-01          TRMIN  = 5.000E-02
          ITBMAT =         5          STPT   =         F
          STSTEP = 1.000E-02          PROJCT=          T

 BEGINNING GEOMETRY SEARCH POINT NSERCH=   0 ...

 COORDINATES OF ALL ATOMS ARE (ANGS)
   ATOM   CHARGE       X              Y              Z
 ------------------------------------------------------------
 O           8.0  -1.3549400000  -0.6190900000  -0.1885800000
 O           8.0   1.4408500000  -0.5804400000   0.0626400000
 C           6.0  -0.6799000000   0.5501400000   0.2797400000
 C           6.0   0.7221700000   0.5911400000  -0.3169800000
 H           1.0  -1.2616900000   1.4342500000   0.0038600000
 H           1.0  -0.6306700000   0.4787900000   1.3703600000
 H           1.0   1.2742700000   1.4679600000   0.0317400000
 H           1.0   0.6770600000   0.6073300000  -1.4102100000
 H           1.0  -1.5324800000  -0.4915000000  -1.1372900000
 H           1.0   0.7866300000  -1.3069800000   0.0690200000

          ********************
          1 ELECTRON INTEGRALS
          ********************
 ...... END OF ONE-ELECTRON INTEGRALS ......
 STEP CPU TIME =     0.00 TOTAL CPU TIME =          0.0 (      0.0 MIN)
 TOTAL WALL CLOCK TIME=          0.1 SECONDS, CPU UTILIZATION IS    16.67%

          -------------
          GUESS OPTIONS
          -------------
          GUESS =HUCKEL            NORB  =       0          NORDER=       0
          MIX   =       F          PRTMO =       F          PUNMO =       F
          TOLZ  = 1.0E-08          TOLE  = 1.0E-05
          SYMDEN=       F          PURIFY=       F

 INITIAL GUESS ORBITALS GENERATED BY HUCKEL   ROUTINE.
 HUCKEL GUESS REQUIRES     26718 WORDS.

 SYMMETRIES FOR INITIAL GUESS ORBITALS FOLLOW.   BOTH SET(S).
    17 ORBITALS ARE OCCUPIED (    4 CORE ORBITALS).
     5=A        6=A        7=A        8=A        9=A       10=A       11=A   
    12=A       13=A       14=A       15=A       16=A       17=A       18=A   
    19=A       20=A       21=A       22=A       23=A       24=A       25=A   
    26=A       27=A   
 ...... END OF INITIAL ORBITAL SELECTION ......
 STEP CPU TIME =     0.01 TOTAL CPU TIME =          0.0 (      0.0 MIN)
 TOTAL WALL CLOCK TIME=          0.1 SECONDS, CPU UTILIZATION IS    28.57%

                    ----------------------
                    AO INTEGRAL TECHNOLOGY
                    ----------------------
     S,P,L SHELL ROTATED AXIS INTEGRALS, REPROGRAMMED BY
        KAZUYA ISHIMURA (IMS) AND JOSE SIERRA (SYNSTAR).
     S,P,D,L SHELL ROTATED AXIS INTEGRALS PROGRAMMED BY
        KAZUYA ISHIMURA (INSTITUTE FOR MOLECULAR SCIENCE).
     S,P,D,F,G SHELL TO TOTAL QUARTET ANGULAR MOMENTUM SUM 5,
        ERIC PROGRAM BY GRAHAM FLETCHER (ELORET AND NASA ADVANCED
        SUPERCOMPUTING DIVISION, AMES RESEARCH CENTER).
     S,P,D,F,G,L SHELL GENERAL RYS QUADRATURE PROGRAMMED BY
        MICHEL DUPUIS (PACIFIC NORTHWEST NATIONAL LABORATORY).

          --------------------
          2 ELECTRON INTEGRALS
          --------------------

 THE -PK- OPTION IS OFF, THE INTEGRALS ARE NOT IN SUPERMATRIX FORM.
 STORING   15000 INTEGRALS/RECORD ON DISK, USING 12 BYTES/INTEGRAL.
 TWO ELECTRON INTEGRAL EVALUATION REQUIRES   89656 WORDS OF MEMORY.
 SCHWARZ INEQUALITY OVERHEAD:      1173 INTEGRALS, T=        0.00
 II,JST,KST,LST =  1  1  1  1 NREC =         1 INTLOC =    1
 II,JST,KST,LST =  2  1  1  1 NREC =         1 INTLOC =    2
 II,JST,KST,LST =  3  1  1  1 NREC =         1 INTLOC =   34
 II,JST,KST,LST =  4  1  1  1 NREC =         1 INTLOC =  214
 II,JST,KST,LST =  5  1  1  1 NREC =         1 INTLOC =  439
 II,JST,KST,LST =  6  1  1  1 NREC =         1 INTLOC = 3007
 II,JST,KST,LST =  7  1  1  1 NREC =         1 INTLOC =10222
 II,JST,KST,LST =  8  1  1  1 NREC =         1 INTLOC =12589
 II,JST,KST,LST =  9  1  1  1 NREC =         3 INTLOC =  881
 II,JST,KST,LST = 10  1  1  1 NREC =         5 INTLOC = 2020
 II,JST,KST,LST = 11  1  1  1 NREC =         5 INTLOC =10734
 II,JST,KST,LST = 12  1  1  1 NREC =         9 INTLOC = 4896
 II,JST,KST,LST = 13  1  1  1 NREC =        14 INTLOC = 9186
 II,JST,KST,LST = 14  1  1  1 NREC =        16 INTLOC = 1625
 II,JST,KST,LST = 15  1  1  1 NREC =        17 INTLOC =13180
 II,JST,KST,LST = 16  1  1  1 NREC =        19 INTLOC =11249
 II,JST,KST,LST = 17  1  1  1 NREC =        21 INTLOC =12485
 II,JST,KST,LST = 18  1  1  1 NREC =        23 INTLOC =13483
 II,JST,KST,LST = 19  1  1  1 NREC =        26 INTLOC = 4460
 II,JST,KST,LST = 20  1  1  1 NREC =        28 INTLOC =12135
 II,JST,KST,LST = 21  1  1  1 NREC =        31 INTLOC = 8775
 II,JST,KST,LST = 22  1  1  1 NREC =        34 INTLOC = 5129
 II,JST,KST,LST = 23  1  1  1 NREC =        37 INTLOC = 7541
 II,JST,KST,LST = 24  1  1  1 NREC =        40 INTLOC =12265
 SCHWARZ INEQUALITY TEST SKIPPED        3208 INTEGRAL BLOCKS.
 TOTAL NUMBER OF NONZERO TWO-ELECTRON INTEGRALS =              651398
         44 INTEGRAL RECORDS WERE STORED ON DISK FILE  8.
  ...... END OF TWO-ELECTRON INTEGRALS .....
 STEP CPU TIME =     0.07 TOTAL CPU TIME =          0.1 (      0.0 MIN)
 TOTAL WALL CLOCK TIME=          0.2 SECONDS, CPU UTILIZATION IS    52.94%

          --------------------------
             R-B3LYP SCF CALCULATION
          --------------------------

     NUCLEAR ENERGY =       133.4353072640
     MAXIT =   30     NPUNCH=    2
     EXTRAP=T  DAMP=F  SHIFT=F  RSTRCT=F  DIIS=T  DEM=F  SOSCF=F
         DENSITY MATRIX CONVERGENCE THRESHOLD=  1.00E-05
     COARSE -> FINE DFT GRID SWITCH THRESHOLD=  3.00E-04 (SWITCH IN $DFT)
                   HF -> DFT SWITCH THRESHOLD=  5.00E-03 (SWOFF IN $DFT)
     MEMORY REQUIRED FOR RHF ITERS=    394480 WORDS.

 DFT CODE IS SWITCHING FROM THE FINE GRID NRAD= 96,  NLEB=  302
                      TO THE COARSE GRID NRAD0= 24, NLEB0=  110

     EXCHANGE FUNCTIONAL   =B88&HFX   
     CORRELATION FUNCTIONAL=LYP88&VWN5
     DFT THRESHOLD         =.138E-07
     GRID CHANGE THRESHOLD =.300E-03
 FOR AN EULER-MACLAURIN QUADRATURE USING  96 RADIAL POINTS:
 SMALLEST GAUSSIAN PRIMITIVE EXPONENT=        0.1612777588 OF TYPE -S-
 ON ATOM NUMBER   5 HAS RADIAL NORMALIZATION=  1.000000
  LARGEST GAUSSIAN PRIMITIVE EXPONENT=     5484.6716600000 OF TYPE -S-
 ON ATOM NUMBER   1 HAS RADIAL NORMALIZATION=  1.000000
 DFT IS SWITCHED OFF, PERFORMING PURE SCF UNTIL SWOFF THRESHOLD IS REACHED.

 ITER EX DEM     TOTAL ENERGY        E CHANGE  DENSITY CHANGE    DIIS ERROR
          * * *   INITIATING DIIS PROCEDURE   * * *
   1  0  0     -228.2363780300  -228.2363780300   0.339079118   0.489891785
   2  1  0     -228.7862671974    -0.5498891674   0.064347694   0.099348398
   3  2  0     -228.8206119302    -0.0343447328   0.024206245   0.025535819
   4  3  0     -228.8245550880    -0.0039431577   0.010764345   0.012570518
   5  4  0     -228.8251159893    -0.0005609014   0.003264151   0.003226106
 CONVERGED TO SWOFF, SO DFT CALCULATION IS NOW SWITCHED ON.
          * * *   INITIATING DIIS PROCEDURE   * * *
   6  5  0     -230.0252845304    -1.2001685411   0.068328075   0.047935416
   7  6  0     -230.0365149405    -0.0112304101   0.036509065   0.020431256
   8  7  0     -230.0376412037    -0.0011262632   0.016174697   0.017493751
   9  8  0     -230.0394480620    -0.0018068582   0.002560259   0.003659198
  10  9  0     -230.0394822143    -0.0000341523   0.000449954   0.000542287
  11 10  0     -230.0394832258    -0.0000010115   0.000058546   0.000073245
 DFT CODE IS SWITCHING BACK TO THE FINE GRID
          * * *   INITIATING DIIS PROCEDURE   * * *
  12 11  0     -230.0421753516    -0.0026921258   0.001754454   0.001223685
  13 12  0     -230.0421848384    -0.0000094867   0.000933679   0.000850172
  14 13  0     -230.0421855730    -0.0000007346   0.000472126   0.000769695
  15 14  0     -230.0421869845    -0.0000014115   0.000032951   0.000019343
  16 15  0     -230.0421869865    -0.0000000020   0.000011296   0.000010500
  17 16  0     -230.0421869873    -0.0000000008   0.000002385   0.000003230
  18 17  0     -230.0421869873    -0.0000000000   0.000001146   0.000001419

          -----------------
          DENSITY CONVERGED
          -----------------
     TIME TO FORM FOCK OPERATORS=       6.7 SECONDS (       0.4 SEC/ITER)
     TIME TO SOLVE SCF EQUATIONS=       0.0 SECONDS (       0.0 SEC/ITER)

 FINAL R-B3LYP ENERGY IS     -230.0421869873 AFTER  18 ITERATIONS
 DFT EXCHANGE + CORRELATION ENERGY =       -24.4002196017
 TOTAL ELECTRON NUMBER             =        34.0000251275

          ------------
          EIGENVECTORS
          ------------

                      1          2          3          4          5
                  -19.1562   -19.1265   -10.2370   -10.2281    -1.0504
                     A          A          A          A          A   
    1  O  1  S    0.995098  -0.000528   0.000029  -0.000020  -0.182712
    2  O  1  S    0.029054   0.000371  -0.000321  -0.000495   0.397096
    3  O  1  X    0.000707   0.000124  -0.000181  -0.000125   0.037737
    4  O  1  Y    0.001781  -0.000013  -0.000332  -0.000092   0.098658
    5  O  1  Z   -0.001040  -0.000017  -0.000272   0.000051  -0.065292
    6  O  1  S   -0.016916  -0.000810   0.003261   0.000604   0.412940
    7  O  1  X   -0.001913  -0.000720   0.000703   0.000188   0.028586
    8  O  1  Y   -0.003924   0.000020   0.000677   0.000238   0.056805
    9  O  1  Z    0.000644   0.000116   0.001012  -0.000388  -0.026190
   10  O  2  S    0.000567   0.995106  -0.000009   0.000024  -0.073637
   11  O  2  S    0.000404   0.029177  -0.000306  -0.000437   0.158426
   12  O  2  X   -0.000028  -0.002133   0.000141   0.000124  -0.053561
   13  O  2  Y   -0.000017   0.000341  -0.000133  -0.000405   0.007849
   14  O  2  Z    0.000048  -0.000521  -0.000011   0.000110  -0.011788
   15  O  2  S   -0.001296  -0.017543  -0.000051   0.003475   0.165854
   16  O  2  X    0.000495   0.004045  -0.000242  -0.000240  -0.030301
   17  O  2  Y    0.000039  -0.002034   0.000356   0.001104   0.008187
   18  O  2  Z   -0.000078   0.001262   0.000029  -0.000171  -0.006120
   19  C  3  S   -0.000076  -0.000010   0.995327  -0.007667  -0.075320
   20  C  3  S   -0.001050  -0.000347   0.037004  -0.001678   0.144420
   21  C  3  X   -0.000329  -0.000507  -0.000228  -0.000441  -0.031857
   22  C  3  Y   -0.000368   0.000090  -0.000390   0.000106  -0.076379
   23  C  3  Z   -0.000232   0.000028  -0.000237   0.000269  -0.040945
   24  C  3  S    0.007812  -0.000906  -0.032483   0.008801   0.053140
   25  C  3  X   -0.001839   0.000008  -0.002469   0.004533   0.011873
   26  C  3  Y   -0.002806  -0.000223   0.000211  -0.000115   0.013663
   27  C  3  Z   -0.001241   0.000237   0.000668  -0.001790  -0.002865
   28  C  4  S   -0.000033  -0.000094   0.007601   0.995320  -0.042628
   29  C  4  S   -0.000584  -0.001248  -0.001166   0.036944   0.085523
   30  C  4  X    0.000428   0.000351   0.000417   0.000056  -0.006431
   31  C  4  Y    0.000173  -0.000366   0.000107  -0.000333  -0.039705
   32  C  4  Z   -0.000012   0.000106  -0.000231  -0.000008   0.013643
   33  C  4  S    0.000223   0.008491   0.008657  -0.032426   0.019624
   34  C  4  X   -0.000119   0.001184  -0.004553   0.002411  -0.003292
   35  C  4  Y   -0.000605  -0.003716  -0.000295  -0.000006   0.002570
   36  C  4  Z   -0.000137   0.000881   0.001827  -0.000558  -0.005233
   37  H  5  S   -0.000530  -0.000035  -0.000515  -0.000260   0.023773
   38  H  5  S   -0.000724   0.000738   0.005607   0.000382  -0.001202
   39  H  6  S   -0.000457  -0.000025  -0.000380  -0.000372   0.023362
   40  H  6  S   -0.000718  -0.000311   0.005993   0.000363   0.005481
   41  H  7  S   -0.000067  -0.000430  -0.000291  -0.000477   0.012654
   42  H  7  S    0.000751  -0.000257   0.000372   0.005763  -0.001035
   43  H  8  S    0.000010  -0.000632  -0.000324  -0.000472   0.015120
   44  H  8  S   -0.000660  -0.000660   0.000262   0.006155   0.003995
   45  H  9  S    0.000509   0.000285   0.000295  -0.000361   0.121529
   46  H  9  S    0.002388  -0.000305   0.001154  -0.000176  -0.001351
   47  H 10  S   -0.000043   0.000509  -0.000163   0.000206   0.051614
   48  H 10  S    0.000686   0.002784   0.000745   0.000874  -0.002024

                      6          7          8          9         10
                   -1.0118    -0.7437    -0.6370    -0.5203    -0.4988
                     A          A          A          A          A   
    1  O  1  S    0.086684   0.056682  -0.022684  -0.040302  -0.004852
    2  O  1  S   -0.191834  -0.126199   0.051782   0.092170   0.013430
    3  O  1  X   -0.007393   0.057214  -0.068890   0.120896  -0.193245
    4  O  1  Y   -0.044026   0.052272  -0.094424   0.036813  -0.038938
    5  O  1  Z    0.036453   0.101930  -0.191170   0.315558  -0.095103
    6  O  1  S   -0.198672  -0.172280   0.077360   0.151738   0.007300
    7  O  1  X   -0.004054   0.016254  -0.025603   0.059565  -0.116982
    8  O  1  Y   -0.028446   0.013248  -0.036266   0.015202  -0.016026
    9  O  1  Z    0.012244   0.039649  -0.081069   0.155416  -0.044173
   10  O  2  S   -0.186260   0.059625   0.029514   0.005301  -0.038927
   11  O  2  S    0.405911  -0.133498  -0.064944  -0.011215   0.089620
   12  O  2  X   -0.122065   0.012751   0.033422   0.031402   0.128326
   13  O  2  Y    0.012839   0.097100   0.181860   0.239766   0.214405
   14  O  2  Z   -0.028041  -0.006814  -0.051115  -0.029160   0.047941
   15  O  2  S    0.425918  -0.171554  -0.102447  -0.023625   0.138205
   16  O  2  X   -0.064854   0.011171   0.022267   0.013235   0.067397
   17  O  2  Y    0.016307   0.030641   0.073670   0.116183   0.102840
   18  O  2  Z   -0.017345   0.000758  -0.021974  -0.009867   0.025838
   19  C  3  S    0.015725  -0.141139   0.104853   0.028953  -0.016049
   20  C  3  S   -0.030148   0.279538  -0.209212  -0.048183   0.030930
   21  C  3  X    0.045538   0.073981   0.102128  -0.025481  -0.100769
   22  C  3  Y    0.029024   0.042540   0.023680  -0.276546   0.172384
   23  C  3  Z    0.013192  -0.006811  -0.084686   0.103639   0.181488
   24  C  3  S   -0.007759   0.257547  -0.259770  -0.079048   0.058130
   25  C  3  X   -0.003904   0.012905   0.001641  -0.004419  -0.037946
   26  C  3  Y   -0.013942   0.013554   0.010007  -0.097769   0.064406
   27  C  3  Z    0.007144  -0.007457  -0.020299   0.075233   0.061394
   28  C  4  S   -0.068264  -0.126425  -0.120747  -0.014257   0.024612
   29  C  4  S    0.131834   0.251409   0.241297   0.033160  -0.042500
   30  C  4  X    0.049578  -0.084838   0.095739   0.153377   0.207744
   31  C  4  Y   -0.084164   0.051354   0.037391  -0.094938   0.046682
   32  C  4  Z    0.025632   0.018552  -0.066576   0.047054   0.193522
   33  C  4  S    0.051689   0.218263   0.283725   0.053434  -0.068697
   34  C  4  X   -0.015408  -0.014684  -0.005776   0.045382   0.102994
   35  C  4  Y    0.013764   0.010717   0.007972  -0.025423   0.048996
   36  C  4  Z   -0.006764   0.000103  -0.015955   0.009184   0.093283
   37  H  5  S   -0.006266   0.092611  -0.087383  -0.153658   0.097531
   38  H  5  S   -0.001034   0.015932  -0.034827  -0.091689   0.064381
   39  H  6  S   -0.003792   0.090587  -0.112575   0.029058   0.105724
   40  H  6  S   -0.003079   0.017035  -0.036581   0.005038   0.068770
   41  H  7  S    0.021650   0.084866   0.116055   0.019523   0.080879
   42  H  7  S    0.004556   0.017580   0.045518   0.006721   0.036151
   43  H  8  S    0.022254   0.077848   0.118886  -0.020283  -0.131683
   44  H  8  S   -0.004210   0.011509   0.043876  -0.027323  -0.071804
   45  H  9  S   -0.063838  -0.090233   0.124754  -0.175439   0.085988
   46  H  9  S    0.001009  -0.023943   0.052992  -0.102604   0.045789
   47  H 10  S    0.122264  -0.078479  -0.108517  -0.119727  -0.127897
   48  H 10  S   -0.006923  -0.022344  -0.037765  -0.049933  -0.068764

                     11         12         13         14         15
                   -0.4716    -0.4390    -0.4063    -0.3386    -0.3220
                     A          A          A          A          A   
    1  O  1  S   -0.012079  -0.041409  -0.008385   0.056674  -0.027272
    2  O  1  S    0.026107   0.093806   0.019412  -0.126290   0.061638
    3  O  1  X    0.035230  -0.065860  -0.133881   0.160709   0.190593
    4  O  1  Y   -0.218897  -0.088305  -0.210412   0.292302  -0.296698
    5  O  1  Z   -0.114188   0.181315  -0.032656  -0.251948   0.043056
    6  O  1  S    0.042065   0.161515   0.011891  -0.224448   0.115630
    7  O  1  X    0.026164  -0.045995  -0.077127   0.120192   0.131975
    8  O  1  Y   -0.127027  -0.054720  -0.138083   0.216106  -0.213550
    9  O  1  Z   -0.063487   0.107402  -0.015713  -0.155209   0.032051
   10  O  2  S    0.029096  -0.001540   0.019218  -0.024370  -0.059963
   11  O  2  S   -0.066382   0.003118  -0.041817   0.055892   0.137426
   12  O  2  X   -0.119609   0.069858  -0.065563   0.229786   0.437451
   13  O  2  Y   -0.067173  -0.305688   0.011275  -0.089986   0.016798
   14  O  2  Z    0.127616   0.052172  -0.190227   0.007673   0.025057
   15  O  2  S   -0.107411  -0.006097  -0.079387   0.071880   0.215520
   16  O  2  X   -0.067454   0.045939  -0.035077   0.155831   0.308582
   17  O  2  Y   -0.027724  -0.159373   0.007405  -0.086873   0.009121
   18  O  2  Z    0.075682   0.026180  -0.118250   0.014644   0.021514
   19  C  3  S    0.001909   0.028827  -0.003632  -0.018457  -0.019473
   20  C  3  S   -0.007335  -0.059321   0.008206   0.041821   0.037777
   21  C  3  X    0.319299  -0.073278   0.002896   0.014984   0.138980
   22  C  3  Y   -0.049035   0.010825   0.066184  -0.217878   0.076562
   23  C  3  Z    0.145590   0.108803   0.308725   0.159269  -0.068164
   24  C  3  S   -0.005699  -0.081770   0.000923   0.054280   0.122184
   25  C  3  X    0.134451  -0.031629  -0.027538   0.036910   0.095134
   26  C  3  Y   -0.049155  -0.005584   0.014246  -0.019079   0.053478
   27  C  3  Z    0.094749   0.077527   0.170540  -0.001003  -0.054869
   28  C  4  S   -0.015055  -0.016273  -0.000697   0.017713   0.022198
   29  C  4  S    0.027302   0.024466  -0.005500  -0.037863  -0.051407
   30  C  4  X   -0.136660   0.099877   0.012141   0.036431  -0.154841
   31  C  4  Y    0.040878   0.347030  -0.164213   0.096245   0.024403
   32  C  4  Z    0.243176  -0.096443  -0.244837  -0.088349  -0.056554
   33  C  4  S    0.038324   0.066749   0.032402  -0.075160  -0.070573
   34  C  4  X   -0.067930   0.039334  -0.031065   0.087630  -0.004147
   35  C  4  Y    0.007207   0.154556  -0.086251  -0.006981  -0.006043
   36  C  4  Z    0.083400  -0.036646  -0.117741  -0.017025  -0.038839
   37  H  5  S   -0.141520  -0.020458  -0.008223  -0.156829   0.036780
   38  H  5  S   -0.085800   0.001277  -0.005638  -0.193299   0.014079
   39  H  6  S    0.092138   0.029886   0.204808   0.162889  -0.025672
   40  H  6  S    0.043628   0.016841   0.139292   0.181997  -0.020337
   41  H  7  S    0.041181   0.201694  -0.133051   0.028918  -0.099060
   42  H  7  S    0.034892   0.139835  -0.092067   0.030024  -0.090729
   43  H  8  S   -0.116650   0.078471   0.158071   0.053569   0.018431
   44  H  8  S   -0.094038   0.053562   0.124152   0.092992   0.028999
   45  H  9  S    0.064619  -0.078699   0.047437   0.132739  -0.054807
   46  H  9  S    0.040806  -0.045784   0.060600   0.094645  -0.041544
   47  H 10  S    0.067622   0.132944   0.003074  -0.029448  -0.135160
   48  H 10  S    0.048275   0.112016   0.007118  -0.039464  -0.035996

                     16         17         18         19         20
                   -0.2881    -0.2555     0.0521     0.1132     0.1254
                     A          A          A          A          A   
    1  O  1  S    0.005621   0.006428   0.077214  -0.018720   0.042381
    2  O  1  S   -0.022295  -0.009391  -0.143054   0.041168  -0.055822
    3  O  1  X    0.461556   0.163985  -0.035591   0.112465   0.085163
    4  O  1  Y   -0.156651  -0.078618  -0.086189   0.014449  -0.133084
    5  O  1  Z   -0.130608  -0.045251   0.240033   0.100130   0.097357
    6  O  1  S    0.027274  -0.067460  -0.888578   0.155045  -0.646644
    7  O  1  X    0.368488   0.122525  -0.043957   0.153346   0.074585
    8  O  1  Y   -0.107468  -0.075204  -0.143585   0.132856  -0.235573
    9  O  1  Z   -0.093261  -0.041355   0.389185   0.181062   0.122823
   10  O  2  S    0.025514   0.002683   0.026291  -0.083142  -0.040040
   11  O  2  S   -0.054060  -0.008777  -0.056270   0.138897   0.084486
   12  O  2  X   -0.114583  -0.119037   0.113028  -0.208080  -0.110905
   13  O  2  Y    0.011830   0.122619   0.028430  -0.048772  -0.053250
   14  O  2  Z   -0.229202   0.543257  -0.026254  -0.066988   0.014646
   15  O  2  S   -0.128779   0.003292  -0.258821   1.050402   0.454334
   16  O  2  X   -0.080327  -0.096473   0.153803  -0.359519  -0.209573
   17  O  2  Y    0.029128   0.108068   0.065189  -0.003060  -0.087799
   18  O  2  Z   -0.166740   0.420745  -0.047992  -0.111473   0.008943
   19  C  3  S    0.001784   0.017284   0.011060   0.061650  -0.079383
   20  C  3  S   -0.003163  -0.047389   0.004234  -0.090807   0.119656
   21  C  3  X   -0.150854  -0.157499  -0.000320   0.046525  -0.167619
   22  C  3  Y    0.059284   0.026230  -0.184231  -0.039317   0.012518
   23  C  3  Z    0.022752   0.051388  -0.048293   0.021671   0.093913
   24  C  3  S   -0.020039  -0.089554  -0.324700  -1.027243   1.175848
   25  C  3  X   -0.004543  -0.048707  -0.024044   0.249121  -0.410971
   26  C  3  Y    0.066982  -0.077937  -0.385263  -0.053661  -0.057695
   27  C  3  Z    0.042184  -0.003055  -0.149629   0.054862   0.329392
   28  C  4  S    0.021530   0.010091   0.021858   0.066146  -0.051732
   29  C  4  S   -0.043719  -0.019593  -0.018226  -0.115537   0.068734
   30  C  4  X    0.237348   0.087161   0.003487  -0.156869   0.029071
   31  C  4  Y    0.032219  -0.026529  -0.067365   0.073687   0.199673
   32  C  4  Z    0.042816  -0.157192   0.116638   0.000222  -0.067237
   33  C  4  S   -0.140833  -0.088593  -0.367752  -0.878556   0.982754
   34  C  4  X    0.071988   0.026702  -0.020879  -0.571922   0.040616
   35  C  4  Y   -0.050228   0.032039  -0.086662   0.154500   0.497242
   36  C  4  Z   -0.063359  -0.021267   0.279286  -0.006064  -0.267891
   37  H  5  S    0.118441   0.067245   0.025360  -0.032043  -0.036848
   38  H  5  S    0.129771   0.132843   0.468245   0.580538  -0.788344
   39  H  6  S    0.005043   0.023961  -0.022047   0.033058  -0.011760
   40  H  6  S   -0.017853   0.082030   0.114249   0.383538  -0.855407
   41  H  7  S    0.113545  -0.047201   0.042908   0.023163   0.012552
   42  H  7  S    0.188908  -0.060017   0.223048   0.619710  -0.781611
   43  H  8  S   -0.081026   0.150130  -0.028643   0.002545  -0.037967
   44  H  8  S   -0.097584   0.215540   0.400301   0.408975  -0.684314
   45  H  9  S    0.003713   0.009484   0.116534   0.023802   0.102556
   46  H  9  S    0.005404   0.017476   1.124376   0.270541   0.688248
   47  H 10  S    0.058702   0.004902   0.029282  -0.144716  -0.045357
   48  H 10  S    0.095626   0.024001   0.348090  -1.026117  -0.525093

                     21         22         23         24         25
                    0.1334     0.1543     0.1598     0.2046     0.2231
                     A          A          A          A          A   
    1  O  1  S   -0.026078  -0.013948  -0.017097   0.018634  -0.030420
    2  O  1  S    0.053883   0.035640   0.033814  -0.005531   0.029510
    3  O  1  X    0.049513   0.057409   0.082878  -0.044528   0.150700
    4  O  1  Y    0.115626   0.105223   0.112701  -0.219754   0.109569
    5  O  1  Z    0.055541  -0.020085   0.115253  -0.136897   0.138719
    6  O  1  S    0.286576   0.112196   0.155919  -0.415540   0.553859
    7  O  1  X    0.111695   0.015961   0.166071  -0.185893   0.397493
    8  O  1  Y    0.212866   0.181170   0.137268  -0.405674   0.318220
    9  O  1  Z    0.066619  -0.041892   0.267450  -0.260607   0.268216
   10  O  2  S    0.006331   0.002832  -0.011042   0.008042   0.036617
   11  O  2  S   -0.014791  -0.017862   0.020725  -0.010214  -0.025449
   12  O  2  X   -0.017062   0.037895  -0.059880  -0.029140   0.083670
   13  O  2  Y   -0.018923  -0.032997   0.198662  -0.258864  -0.233262
   14  O  2  Z   -0.000081  -0.033479  -0.084813  -0.031829   0.074722
   15  O  2  S   -0.053049   0.069849   0.108709  -0.093178  -0.741587
   16  O  2  X   -0.021377  -0.019464  -0.099021  -0.048193   0.319549
   17  O  2  Y   -0.048524  -0.041792   0.331979  -0.511380  -0.533658
   18  O  2  Z   -0.065189  -0.049340  -0.162943  -0.046873   0.121509
   19  C  3  S   -0.042194   0.074385   0.037680  -0.029158   0.108656
   20  C  3  S    0.042432  -0.097881  -0.076742   0.045332  -0.082245
   21  C  3  X    0.105242   0.179376  -0.014897  -0.111212  -0.111170
   22  C  3  Y    0.118426  -0.163244   0.255593  -0.141786   0.193316
   23  C  3  Z    0.253380   0.151829  -0.164328  -0.202574   0.062340
   24  C  3  S    0.865316  -1.171375  -0.468291   0.334643  -1.938899
   25  C  3  X    0.386307   0.434813  -0.063889  -0.457422  -0.891687
   26  C  3  Y    0.343471  -0.707588   0.586651  -0.564300   1.086982
   27  C  3  Z    0.628497   0.408121  -0.725128  -0.843174   0.484836
   28  C  4  S    0.054020  -0.073626   0.017704  -0.018098  -0.125537
   29  C  4  S   -0.049462   0.103505  -0.029685   0.047597   0.108003
   30  C  4  X    0.090149   0.098616   0.058672   0.134476  -0.047346
   31  C  4  Y   -0.001992   0.160668   0.265154   0.003193  -0.164342
   32  C  4  Z    0.239195   0.034797   0.103934   0.295221   0.101904
   33  C  4  S   -0.998686   1.189529  -0.189983   0.152995   2.232220
   34  C  4  X    0.283311   0.210051   0.113579   0.642502  -0.650326
   35  C  4  Y   -0.029220   0.759197   0.728487   0.021729  -1.139426
   36  C  4  Z    0.565071   0.007595   0.473349   1.004966   0.599417
   37  H  5  S    0.014067   0.066464  -0.079449   0.054770  -0.006897
   38  H  5  S   -0.111053   1.647005  -0.826437  -0.122304  -0.418610
   39  H  6  S   -0.104191  -0.014283   0.051794   0.034752  -0.065355
   40  H  6  S   -1.303110  -0.170198   1.155726   0.670645   0.328009
   41  H  7  S   -0.048746  -0.081462  -0.086516   0.041726   0.031259
   42  H  7  S   -0.192846  -1.396608  -1.029677  -0.806026   0.049317
   43  H  8  S    0.099530   0.004795  -0.002501   0.039698   0.055222
   44  H  8  S    1.364146  -0.352528   0.603817   1.119882  -0.229584
   45  H  9  S   -0.000075   0.024381   0.004685  -0.047069  -0.005673
   46  H  9  S    0.124946  -0.028201   0.249140  -0.492886   0.422048
   47  H 10  S    0.008890   0.006464   0.050233  -0.058918  -0.046707
   48  H 10  S    0.002063   0.021873   0.526965  -0.685931  -0.291589

                     26         27         28         29         30
                    0.2430     0.5443     0.5490     0.6032     0.6115
                     A          A          A          A          A   
    1  O  1  S   -0.013601   0.010298  -0.005583   0.004444   0.016041
    2  O  1  S    0.039307  -0.144788   0.072068  -0.075731  -0.048398
    3  O  1  X    0.011713  -0.220235   0.021522   0.032217   0.115246
    4  O  1  Y    0.052281  -0.186689   0.030641  -0.044227  -0.010704
    5  O  1  Z    0.174085  -0.028634   0.010289  -0.019007  -0.015395
    6  O  1  S    0.089902   0.766058  -0.263520   0.278259   0.018779
    7  O  1  X   -0.017593   0.103496  -0.124157   0.181791  -0.079168
    8  O  1  Y    0.157622   0.184228  -0.034165   0.034861   0.019187
    9  O  1  Z    0.335730   0.046856   0.053430  -0.126739   0.020101
   10  O  2  S    0.018084   0.001155   0.014431  -0.000424   0.007314
   11  O  2  S   -0.036152   0.005210  -0.163180   0.003437  -0.085643
   12  O  2  X   -0.067960   0.027465   0.213272  -0.021855  -0.013308
   13  O  2  Y   -0.189968  -0.000916  -0.209666  -0.026410  -0.039441
   14  O  2  Z    0.081508   0.000874   0.007950   0.191101  -0.122159
   15  O  2  S   -0.192556  -0.065526   0.761938   0.189829   0.206012
   16  O  2  X   -0.122566   0.105895  -0.149445  -0.037047  -0.199511
   17  O  2  Y   -0.392049   0.035141   0.125227   0.061388  -0.014993
   18  O  2  Z    0.201182  -0.037531  -0.049892   0.056721   0.064983
   19  C  3  S   -0.041338  -0.029253   0.006482  -0.017015   0.005353
   20  C  3  S    0.014866   0.345069  -0.169734   0.175300  -0.029373
   21  C  3  X    0.299117  -0.481394  -0.345651   0.503761  -0.502540
   22  C  3  Y    0.130474  -0.711620   0.231656  -0.264664  -0.134594
   23  C  3  Z   -0.172818  -0.206929   0.306309  -0.474503  -0.388095
   24  C  3  S    1.004461  -0.951170   0.290089  -0.018270   0.873049
   25  C  3  X    1.389465   0.588676   0.667059  -0.931022   1.028426
   26  C  3  Y    0.355066   1.216839  -0.702679   0.683785  -0.220132
   27  C  3  Z   -0.659429   0.421209  -0.649090   1.196380   0.731186
   28  C  4  S    0.024965  -0.006455  -0.034919   0.000984  -0.017734
   29  C  4  S    0.015996  -0.054308   0.380706   0.042188   0.197302
   30  C  4  X    0.344975   0.453757   0.344627   0.223726  -0.646855
   31  C  4  Y   -0.123251   0.064601  -0.773747  -0.330760  -0.256352
   32  C  4  Z   -0.203430  -0.178199   0.222480   0.477272   0.108456
   33  C  4  S   -0.773675   0.035741  -0.966701   0.780672  -0.482628
   34  C  4  X    1.492914  -0.788765  -0.279131  -0.480113   1.261467
   35  C  4  Y   -0.338431  -0.401000   1.376224   0.345213   0.911286
   36  C  4  Z   -0.622452   0.288606  -0.344676  -1.082631  -0.414461
   37  H  5  S    0.056474  -0.070880   0.034657  -0.320897   0.101852
   38  H  5  S    0.008917  -0.096629   0.137870  -0.263436   0.307393
   39  H  6  S    0.020544  -0.027549   0.146480  -0.058701  -0.291443
   40  H  6  S    0.471923  -0.061890   0.196280  -0.449998  -0.250448
   41  H  7  S   -0.040373   0.011160  -0.040587  -0.075982  -0.344149
   42  H  7  S   -0.116261   0.100519  -0.216854   0.122473  -0.437789
   43  H  8  S   -0.009818   0.094951  -0.093892  -0.212486   0.093930
   44  H  8  S   -0.566887   0.058125  -0.024811  -0.415030  -0.163515
   45  H  9  S    0.043004  -0.150302   0.079796  -0.078253   0.251560
   46  H  9  S    0.442767   0.223088  -0.122940   0.117394   0.165958
   47  H 10  S    0.002600  -0.020747  -0.101766  -0.029140  -0.040222
   48  H 10  S   -0.498674   0.126338   0.165370   0.241235   0.081089

                     31         32         33         34         35
                    0.6572     0.7134     0.8211     0.8445     0.8668
                     A          A          A          A          A   
    1  O  1  S    0.023102  -0.007669   0.013874  -0.005567   0.027491
    2  O  1  S   -0.088843   0.078993  -0.072593   0.002742  -0.231327
    3  O  1  X    0.113489   0.282142  -0.170174   0.050814  -0.166877
    4  O  1  Y    0.066518  -0.208596  -0.338185  -0.084936  -0.024690
    5  O  1  Z   -0.106845  -0.053250   0.375424  -0.072237  -0.128415
    6  O  1  S   -0.303174  -0.181876   0.209363  -0.065640   0.164903
    7  O  1  X   -0.087097  -0.136209   0.342333  -0.105943   0.130738
    8  O  1  Y   -0.109220  -0.047804   0.290451   0.089342   0.015444
    9  O  1  Z   -0.055124   0.114154   0.064346  -0.078089   0.222448
   10  O  2  S   -0.013279   0.024887   0.008314   0.025419   0.001720
   11  O  2  S    0.039517  -0.063928  -0.040783  -0.152005  -0.081811
   12  O  2  X    0.109608  -0.227561   0.204063   0.385240  -0.194464
   13  O  2  Y   -0.049748   0.015019   0.109627  -0.070634  -0.239548
   14  O  2  Z   -0.211564  -0.086989   0.007434  -0.045488   0.000044
   15  O  2  S    0.304851  -0.335615   0.050908   0.173518   0.016963
   16  O  2  X   -0.055684   0.221536  -0.098249  -0.127105   0.098762
   17  O  2  Y    0.105589  -0.136304   0.064386   0.346878   0.095768
   18  O  2  Z   -0.077282  -0.066871   0.017127   0.058016   0.091685
   19  C  3  S   -0.034977  -0.018225  -0.007945  -0.014294  -0.044760
   20  C  3  S    0.144818   0.058692  -0.021517  -0.092488   0.057785
   21  C  3  X    0.349801   0.245879   0.207091  -0.205602  -0.082491
   22  C  3  Y    0.281842  -0.315592  -0.223386   0.321319   0.144824
   23  C  3  Z   -0.366873   0.449258   0.234454  -0.155156   0.396814
   24  C  3  S   -0.539631   0.036468  -0.206721   0.098177  -0.241606
   25  C  3  X   -0.848005  -0.926804  -0.405234   0.327338   0.037476
   26  C  3  Y   -0.851151   0.661315   0.512674  -0.490390   0.013278
   27  C  3  Z    0.870419  -1.479583  -0.505588   0.398271  -0.347758
   28  C  4  S    0.034899  -0.012816   0.007636  -0.028249  -0.032803
   29  C  4  S   -0.137052   0.028661  -0.016909   0.010974  -0.103962
   30  C  4  X    0.457226  -0.159460   0.053286   0.162271   0.225695
   31  C  4  Y   -0.216107  -0.319825   0.021459   0.297569   0.342972
   32  C  4  Z   -0.460102  -0.433389   0.178668   0.200004   0.066609
   33  C  4  S    0.376241   0.304396   0.045433  -0.269874   0.112877
   34  C  4  X   -1.043632   0.661628  -0.162792  -0.280444  -0.214829
   35  C  4  Y    0.686490   0.491146  -0.183575  -0.432238  -0.425615
   36  C  4  Z    1.099536   1.538446  -0.117829  -0.448185  -0.478292
   37  H  5  S    0.099755  -0.365730   0.263511  -0.493597  -0.300271
   38  H  5  S    0.085969  -0.584701  -0.638984   0.776660   0.107653
   39  H  6  S   -0.364780   0.036441  -0.199488   0.112867  -0.757708
   40  H  6  S   -0.339770   0.693073   0.638492  -0.447512   0.790029
   41  H  7  S   -0.043691  -0.314237  -0.004490  -0.546699  -0.534030
   42  H  7  S   -0.056670  -0.529888   0.201458   0.888053   0.666229
   43  H  8  S    0.369744   0.049000   0.200265   0.140566  -0.380508
   44  H  8  S    0.436435   0.672816  -0.187738  -0.423088  -0.183885
   45  H  9  S    0.151198  -0.086097   0.934837  -0.285208   0.218448
   46  H  9  S   -0.057330  -0.061696  -0.746031   0.181524  -0.251199
   47  H 10  S   -0.045790   0.192038   0.450443   0.834434  -0.427146
   48  H 10  S    0.044371   0.193827  -0.285296  -0.749004   0.186479

                     36         37         38         39         40
                    0.8821     0.9003     0.9343     0.9898     1.0227
                     A          A          A          A          A   
    1  O  1  S   -0.006728  -0.000179   0.011371  -0.010857   0.047034
    2  O  1  S    0.000191   0.017990  -0.025915   0.044153  -0.463192
    3  O  1  X   -0.065139  -0.141048   0.023754  -0.460019   0.179024
    4  O  1  Y   -0.395974   0.167889   0.033322   0.067322   0.127872
    5  O  1  Z    0.235017  -0.157523   0.234585   0.192936  -0.013645
    6  O  1  S    0.208678  -0.156017  -0.220679  -0.083274   0.164913
    7  O  1  X    0.132450   0.252410  -0.114032   0.647161  -0.338169
    8  O  1  Y    0.574157  -0.283016  -0.174119  -0.142681  -0.353884
    9  O  1  Z   -0.234542   0.128646  -0.298363  -0.402407   0.014431
   10  O  2  S    0.010609  -0.008393   0.007793   0.001122   0.014293
   11  O  2  S   -0.109256   0.008985  -0.090808   0.004832  -0.133896
   12  O  2  X   -0.037467   0.396188  -0.258454   0.080973  -0.069808
   13  O  2  Y    0.107158  -0.094972  -0.143229  -0.269120  -0.092644
   14  O  2  Z    0.107779   0.299801  -0.130213  -0.534605   0.402122
   15  O  2  S    0.013029   0.288139   0.169396  -0.198513  -0.133575
   16  O  2  X    0.062210  -0.508707   0.294258  -0.148934   0.167854
   17  O  2  Y   -0.250182   0.252557   0.211412   0.197425   0.003476
   18  O  2  Z   -0.166973  -0.426522   0.078069   0.699826  -0.526698
   19  C  3  S   -0.016550   0.002759   0.027387  -0.005341  -0.019138
   20  C  3  S    0.207665  -0.401482  -0.728175  -0.582779  -1.166480
   21  C  3  X   -0.224014   0.144298   0.113854   0.099863  -0.150908
   22  C  3  Y    0.464584  -0.224194  -0.096219  -0.079765  -0.061447
   23  C  3  Z   -0.340600   0.010641  -0.347233  -0.005710  -0.055474
   24  C  3  S   -0.926844   1.084888   1.534291   1.087852   2.058944
   25  C  3  X    0.275219  -0.382598  -0.395748  -0.695574  -0.077119
   26  C  3  Y   -0.664758   0.339536  -0.144738   0.394617   0.025802
   27  C  3  Z    0.816228  -0.058696   0.458870   0.292747  -0.075669
   28  C  4  S   -0.007106  -0.028897  -0.026419  -0.011767  -0.010157
   29  C  4  S   -0.102574   0.403074   0.655167  -0.882543  -1.279432
   30  C  4  X   -0.087258  -0.132240   0.267080  -0.160276   0.060910
   31  C  4  Y   -0.104336  -0.062906   0.283303  -0.221777  -0.090883
   32  C  4  Z   -0.425241  -0.564536  -0.137789  -0.044347   0.006470
   33  C  4  S    0.449666  -1.121611  -1.402933   2.078689   1.927259
   34  C  4  X   -0.000685   0.259852  -0.577140   0.403229   0.126734
   35  C  4  Y    0.216035   0.432079  -0.277046   0.421635   0.216010
   36  C  4  Z    0.678347   0.892448   0.321331  -0.156852   0.184485
   37  H  5  S   -0.635561   0.277609   0.277388  -0.138541  -0.138737
   38  H  5  S    1.315129  -0.815063  -0.481621  -0.556793  -0.460417
   39  H  6  S    0.215137  -0.193505   0.652263   0.038700   0.136658
   40  H  6  S   -0.696710  -0.033510  -1.221545  -0.480632  -0.676245
   41  H  7  S    0.308722   0.038680  -0.620286   0.129755   0.073922
   42  H  7  S   -0.676928  -0.381603   1.080913  -0.976944  -0.792062
   43  H  8  S   -0.506908  -0.756072  -0.223596  -0.110577   0.204176
   44  H  8  S    0.864322   1.437871   0.691234  -0.425236  -0.603337
   45  H  9  S    0.272059  -0.055795   0.277538  -0.242465   0.271027
   46  H  9  S   -0.326760   0.138970  -0.439427   0.091275  -0.474839
   47  H 10  S   -0.144530   0.296457  -0.191177  -0.007901   0.039064
   48  H 10  S   -0.004108  -0.312367   0.303801  -0.014066  -0.108948

                     41         42         43         44         45
                    1.0403     1.1003     1.1107     1.1822     1.2783
                     A          A          A          A          A   
    1  O  1  S   -0.024804  -0.024378  -0.027386  -0.017957   0.017542
    2  O  1  S    0.199803   0.385160   0.283664   0.114816  -0.135436
    3  O  1  X    0.222973  -0.473785  -0.255236  -0.011551  -0.333078
    4  O  1  Y   -0.550754  -0.045076  -0.354258   0.085892   0.173797
    5  O  1  Z   -0.280604  -0.398731  -0.038063   0.578034  -0.124755
    6  O  1  S   -0.219915  -0.593415  -0.387398  -0.186156  -0.284236
    7  O  1  X   -0.325122   0.764767   0.395116  -0.123836   0.512799
    8  O  1  Y    0.839760   0.179382   0.548118  -0.188908  -0.524105
    9  O  1  Z    0.295852   0.710675   0.039647  -1.433167   0.320053
   10  O  2  S    0.010999   0.040681  -0.050160   0.016756  -0.014565
   11  O  2  S   -0.215332  -0.377366   0.501031  -0.279103   0.121071
   12  O  2  X    0.153137  -0.451273   0.112947   0.006992   0.217666
   13  O  2  Y    0.246406   0.143236  -0.372935   0.298958   0.650653
   14  O  2  Z   -0.182554   0.150753   0.387946   0.230560  -0.014724
   15  O  2  S    0.253099   0.406364  -0.449685   0.411518  -0.077464
   16  O  2  X   -0.278025   0.788616  -0.375033  -0.039290  -0.626524
   17  O  2  Y   -0.464557  -0.127076   0.541857  -0.666883  -1.610847
   18  O  2  Z    0.364153  -0.244975  -0.695116  -0.403482   0.025386
   19  C  3  S   -0.009463   0.015490   0.007215   0.022393  -0.040569
   20  C  3  S   -0.932666   0.088933  -0.044509   0.379450  -0.721593
   21  C  3  X    0.053865  -0.012894   0.117501   0.000755   0.026714
   22  C  3  Y   -0.082518   0.141661   0.070023   0.075408   0.009134
   23  C  3  Z   -0.007265  -0.130759  -0.011317   0.086092   0.057453
   24  C  3  S    1.673102  -1.288731  -0.179014  -1.248953   2.380165
   25  C  3  X    0.557488  -0.294288  -0.205497  -0.747397  -0.051573
   26  C  3  Y    0.252050  -0.329788  -0.093763  -1.174692   0.347265
   27  C  3  Z    0.497023   0.560035  -0.183041   0.513021  -1.070990
   28  C  4  S   -0.005669  -0.014855   0.009857  -0.041965   0.021892
   29  C  4  S   -0.332544  -0.262050   0.034781  -0.688269   0.482135
   30  C  4  X    0.112981   0.048080  -0.155180   0.084955  -0.011762
   31  C  4  Y    0.091475  -0.184781   0.000231  -0.079894  -0.026605
   32  C  4  Z    0.090239   0.007760   0.002360  -0.051857  -0.016739
   33  C  4  S    0.343506   1.399693  -0.369284   2.455033  -0.904073
   34  C  4  X    0.209124  -0.641936   0.337350  -0.447763   1.545878
   35  C  4  Y   -0.191057   0.338263   0.742725   0.803465  -0.101366
   36  C  4  Z   -0.893991   0.306144   0.575226   0.511136   0.651404
   37  H  5  S    0.400203   0.259661   0.062215   0.376718  -0.465476
   38  H  5  S   -0.717130   0.134161  -0.102475   0.236382  -0.365221
   39  H  6  S   -0.175356   0.071408   0.171335  -0.288964   0.115801
   40  H  6  S   -0.490264  -0.201268  -0.019557   0.212363  -0.027274
   41  H  7  S   -0.014261  -0.089308  -0.314443  -0.511804  -0.301629
   42  H  7  S    0.049173  -0.221838  -0.151770  -0.342132  -0.048321
   43  H  8  S   -0.221330   0.042607   0.527510  -0.105882   0.324680
   44  H  8  S   -0.512897  -0.153651  -0.138899  -0.159674   0.231222
   45  H  9  S   -0.302860  -0.010698  -0.231741  -0.556816   0.108083
   46  H  9  S    0.499266   0.794716   0.411962  -0.257699   0.038207
   47  H 10  S   -0.225716   0.487574  -0.472709  -0.037816  -0.361900
   48  H 10  S   -0.160547  -0.493584   0.911467  -0.465439  -0.771704

                     46         47         48
                    1.4645     1.6990     1.8955
                     A          A          A   
    1  O  1  S   -0.011953  -0.021864   0.011481
    2  O  1  S    0.318182   1.308436  -1.073226
    3  O  1  X    0.067440   0.083729  -0.160413
    4  O  1  Y    0.138012   0.205783  -0.159810
    5  O  1  Z   -0.244252   0.113613  -0.025714
    6  O  1  S   -0.019044  -2.801820   2.131232
    7  O  1  X    0.247290  -0.487266   0.589712
    8  O  1  Y   -0.089455  -1.083184   0.720213
    9  O  1  Z    0.939569  -0.240076  -0.022902
   10  O  2  S    0.014211   0.014320   0.016204
   11  O  2  S   -0.312143  -0.941146  -1.424946
   12  O  2  X    0.327541   0.091284   0.156867
   13  O  2  Y   -0.002148  -0.138339  -0.156321
   14  O  2  Z   -0.045983   0.097766   0.048183
   15  O  2  S   -0.143269   2.012061   3.056802
   16  O  2  X   -0.542612  -0.590636  -0.990563
   17  O  2  Y   -0.487838   0.592476   0.649313
   18  O  2  Z    0.127275  -0.317606  -0.312221
   19  C  3  S    0.087666  -0.097092   0.035125
   20  C  3  S    1.409283  -0.780847   0.373519
   21  C  3  X    0.071644  -0.040540   0.315542
   22  C  3  Y   -0.115442  -0.246130   0.094579
   23  C  3  Z   -0.043637  -0.078724   0.070222
   24  C  3  S   -4.393722   4.315359  -1.124092
   25  C  3  X   -1.350037   0.051532   0.286519
   26  C  3  Y    0.625689  -0.425702   0.548825
   27  C  3  Z   -0.193606  -0.630214  -0.050751
   28  C  4  S   -0.084475   0.080586   0.070374
   29  C  4  S   -1.385163   0.572056   0.723849
   30  C  4  X   -0.028030   0.025100  -0.316518
   31  C  4  Y    0.118048   0.242108   0.128097
   32  C  4  Z   -0.020583  -0.039962  -0.054897
   33  C  4  S    4.462770  -3.583110  -2.772863
   34  C  4  X   -0.680509   0.322702   0.025415
   35  C  4  Y   -0.244590   0.328492   0.972880
   36  C  4  Z    0.664941  -0.346071  -0.022488
   37  H  5  S    0.149246  -0.428545   0.151383
   38  H  5  S    0.059758  -0.491028  -0.083752
   39  H  6  S    0.636431  -0.336229   0.150147
   40  H  6  S    0.484579  -0.247462   0.315487
   41  H  7  S   -0.426219   0.272106   0.191456
   42  H  7  S   -0.347045   0.423596  -0.015341
   43  H  8  S   -0.244512   0.364686   0.335844
   44  H  8  S   -0.399556   0.133793   0.387673
   45  H  9  S    0.463325   0.291343  -0.401980
   46  H  9  S    0.322014   0.021201   0.037117
   47  H 10  S   -0.381714  -0.332605  -0.380651
   48  H 10  S   -0.139789   0.040076  -0.224180
 ...... END OF RHF CALCULATION ......
 STEP CPU TIME =     6.90 TOTAL CPU TIME =          7.0 (      0.1 MIN)
 TOTAL WALL CLOCK TIME=          7.1 SECONDS, CPU UTILIZATION IS    97.90%

     ---------------------------------------------------------------------
     PROPERTIES FOR THE B3LYP    DFT FUNCTIONAL (RHF  TYPE) DENSITY MATRIX
     ---------------------------------------------------------------------

          -----------------
          ENERGY COMPONENTS
          -----------------

         WAVEFUNCTION NORMALIZATION =       1.0000000000

                ONE ELECTRON ENERGY =    -577.9982409872
                TWO ELECTRON ENERGY =     214.5207467359
           NUCLEAR REPULSION ENERGY =     133.4353072640
                                      ------------------
                       TOTAL ENERGY =    -230.0421869873

 ELECTRON-ELECTRON POTENTIAL ENERGY =     214.5207467359
  NUCLEUS-ELECTRON POTENTIAL ENERGY =    -807.0805689554
   NUCLEUS-NUCLEUS POTENTIAL ENERGY =     133.4353072640
                                      ------------------
             TOTAL POTENTIAL ENERGY =    -459.1245149554
               TOTAL KINETIC ENERGY =     229.0823279681
                 VIRIAL RATIO (V/T) =       2.0041900177

          ---------------------------------------
          MULLIKEN AND LOWDIN POPULATION ANALYSES
          ---------------------------------------

     ATOMIC MULLIKEN POPULATION IN EACH MOLECULAR ORBITAL

                      1          2          3          4          5

                  2.000000   2.000000   2.000000   2.000000   2.000000

    1             1.998418  -0.000001   0.000552   0.000005   1.354208
    2            -0.000000   1.998272   0.000005   0.000541   0.234624
    3             0.001209  -0.000005   1.994961   0.002103   0.211547
    4             0.000014   0.001315   0.002151   1.994991   0.063478
    5            -0.000017   0.000000   0.001079   0.000010   0.004055
    6            -0.000017  -0.000001   0.001165   0.000010   0.007373
    7             0.000000  -0.000006   0.000011   0.001111   0.000873
    8            -0.000003  -0.000016   0.000008   0.001188   0.003641
    9             0.000386  -0.000000   0.000054  -0.000001   0.102175
   10             0.000010   0.000441   0.000013   0.000043   0.018024

                      6          7          8          9         10

                  2.000000   2.000000   2.000000   2.000000   2.000000

    1             0.286743   0.179663   0.265410   0.586573   0.242919
    2             1.387718   0.154949   0.217207   0.275866   0.370782
    3             0.019576   0.730286   0.432932   0.505035   0.392423
    4             0.174594   0.609709   0.534012   0.171187   0.508730
    5             0.000518   0.068661   0.061163   0.192519   0.078438
    6             0.000071   0.066447   0.101105   0.005490   0.092832
    7             0.005714   0.060960   0.111925   0.002291   0.049346
    8             0.002151   0.047005   0.118346   0.006991   0.131172
    9             0.026157   0.045695   0.089568   0.182775   0.034976
   10             0.096757   0.036625   0.068332   0.071274   0.098381

                     11         12         13         14         15

                  2.000000   2.000000   2.000000   2.000000   2.000000

    1             0.310326   0.294110   0.277437   0.915231   0.590163
    2             0.218528   0.423404   0.224078   0.306856   1.023561
    3             0.675592   0.106418   0.461494   0.232295   0.139700
    4             0.408414   0.668508   0.423956   0.076003   0.097412
    5             0.146439   0.001846   0.000109   0.181269   0.006488
    6             0.061371   0.007830   0.289733   0.172934   0.004232
    7             0.013067   0.308445   0.120975   0.007532   0.057434
    8             0.114046   0.047989   0.181063   0.032806   0.004186
    9             0.019543   0.031853   0.020642   0.071844   0.012674
   10             0.032675   0.109596   0.000514   0.003230   0.064150

                     16         17

                  2.000000   2.000000

    1             1.143810   0.150469
    2             0.324657   1.445925
    3             0.087769   0.087233
    4             0.189699   0.089332
    5             0.087676   0.039685
    6            -0.000193   0.013916
    7             0.099844   0.011771
    8             0.035291   0.157982
    9            -0.000015   0.001710
   10             0.031463   0.001975

               ----- POPULATIONS IN EACH AO -----
                             MULLIKEN      LOWDIN
              1  O  1  S      1.99717     1.99363
              2  O  1  S      0.90516     0.88097
              3  O  1  X      1.08417     1.05443
              4  O  1  Y      0.95713     0.91887
              5  O  1  Z      0.87244     0.80933
              6  O  1  S      1.00940     0.73787
              7  O  1  X      0.70846     0.74929
              8  O  1  Y      0.59361     0.69095
              9  O  1  Z      0.46849     0.58239
             10  O  2  S      1.99718     1.99360
             11  O  2  S      0.90362     0.87857
             12  O  2  X      0.96626     0.92416
             13  O  2  Y      0.81082     0.75086
             14  O  2  Z      1.13824     1.11244
             15  O  2  S      1.01243     0.73371
             16  O  2  X      0.62126     0.69722
             17  O  2  Y      0.40958     0.53727
             18  O  2  Z      0.74759     0.79708
             19  C  3  S      1.99681     1.98695
             20  C  3  S      0.68460     0.56588
             21  C  3  X      0.70543     0.64958
             22  C  3  Y      0.63621     0.57518
             23  C  3  Z      0.74206     0.67240
             24  C  3  S      0.58999     0.42371
             25  C  3  X      0.20640     0.38424
             26  C  3  Y      0.17953     0.36381
             27  C  3  Z      0.33954     0.44534
             28  C  4  S      1.99679     1.98691
             29  C  4  S      0.68648     0.56575
             30  C  4  X      0.70183     0.64613
             31  C  4  Y      0.65268     0.59712
             32  C  4  Z      0.73160     0.65183
             33  C  4  S      0.56442     0.42149
             34  C  4  X      0.19166     0.38113
             35  C  4  Y      0.20667     0.36664
             36  C  4  Z      0.28137     0.44114
             37  H  5  S      0.54616     0.53027
             38  H  5  S      0.32378     0.37633
             39  H  6  S      0.53868     0.52096
             40  H  6  S      0.28562     0.35857
             41  H  7  S      0.54273     0.52292
             42  H  7  S      0.30856     0.36572
             43  H  8  S      0.54835     0.53442
             44  H  8  S      0.33549     0.38372
             45  H  9  S      0.51286     0.47974
             46  H  9  S      0.12718     0.23943
             47  H 10  S      0.50315     0.47155
             48  H 10  S      0.13035     0.24852

          ----- MULLIKEN ATOMIC OVERLAP POPULATIONS -----
          (OFF-DIAGONAL ELEMENTS NEED TO BE MULTIPLIED BY 2)

             1           2           3           4           5

    1    8.2877448
    2   -0.0088608   8.2845263
    3    0.2049722  -0.0496120   5.0740793
    4   -0.0658610   0.2361275   0.2782986   5.0211312
    5   -0.0448641   0.0041346   0.3304627  -0.0405127   0.6595780
    6   -0.0423337   0.0011534   0.3703249  -0.0460279  -0.0361678
    7    0.0043768  -0.0413557  -0.0275294   0.3417640   0.0025654
    8   -0.0046698  -0.0590157  -0.0461179   0.3444788   0.0003604
    9    0.2364243   0.0001958  -0.0410377  -0.0019605  -0.0071016
   10    0.0291104   0.2396806  -0.0132728  -0.0539333   0.0014824

             6           7           8           9          10

    6    0.5686338
    7   -0.0036760   0.6173558
    8    0.0065652  -0.0501002   0.6872607
    9    0.0075742  -0.0000514   0.0060968   0.4409065
   10   -0.0017482   0.0079447  -0.0010120  -0.0010113   0.4262625

          TOTAL MULLIKEN AND LOWDIN ATOMIC POPULATIONS
       ATOM         MULL.POP.    CHARGE          LOW.POP.     CHARGE
    1 O             8.596039   -0.596039         8.417715   -0.417715
    2 O             8.606974   -0.606974         8.424924   -0.424924
    3 C             6.080568   -0.080568         6.067091   -0.067091
    4 C             6.013505   -0.013505         6.058127   -0.058127
    5 H             0.869937    0.130063         0.906602    0.093398
    6 H             0.824298    0.175702         0.879530    0.120470
    7 H             0.851294    0.148706         0.888639    0.111361
    8 H             0.883846    0.116154         0.918143    0.081857
    9 H             0.640035    0.359965         0.719165    0.280835
   10 H             0.633503    0.366497         0.720065    0.279935

          -------------------------------
          BOND ORDER AND VALENCE ANALYSIS     BOND ORDER THRESHOLD=0.050
          -------------------------------

                   BOND                       BOND                       BOND
  ATOM PAIR DIST  ORDER      ATOM PAIR DIST  ORDER      ATOM PAIR DIST  ORDER
    1   3  1.429  0.868        1   9  0.974  0.806        1  10  2.264  0.051
    2   4  1.426  0.898        2  10  0.978  0.778        3   4  1.524  0.929
    3   5  1.094  0.925        3   6  1.094  0.931        4   7  1.093  0.927
    4   8  1.094  0.924

                       TOTAL       BONDED        FREE
      ATOM            VALENCE     VALENCE     VALENCE
    1 O                 1.749       1.749       0.000
    2 O                 1.727       1.727       0.000
    3 C                 3.666       3.666      -0.000
    4 C                 3.673       3.673      -0.000
    5 H                 0.930       0.930      -0.000
    6 H                 0.928       0.928       0.000
    7 H                 0.931       0.931      -0.000
    8 H                 0.929       0.929       0.000
    9 H                 0.831       0.831      -0.000
   10 H                 0.843       0.843       0.000

          ---------------------
          ELECTROSTATIC MOMENTS
          ---------------------

 POINT   1           X           Y           Z (BOHR)    CHARGE
                 0.036222   -0.100036   -0.107900        0.00 (A.U.)
         DX          DY          DZ         /D/  (DEBYE)
    -1.703219    1.688600   -1.468062    2.812034
 ...... END OF PROPERTY EVALUATION ......
 STEP CPU TIME =     0.01 TOTAL CPU TIME =          7.0 (      0.1 MIN)
 TOTAL WALL CLOCK TIME=          7.2 SECONDS, CPU UTILIZATION IS    97.90%

 BEGINNING ONE ELECTRON GRADIENT...
 ..... END OF 1-ELECTRON GRADIENT ......
 STEP CPU TIME =     0.01 TOTAL CPU TIME =          7.0 (      0.1 MIN)
 TOTAL WALL CLOCK TIME=          7.2 SECONDS, CPU UTILIZATION IS    97.91%

          ----------------------
          GRADIENT OF THE ENERGY
          ----------------------
 MEMORY FOR GRID POINT CONTRIBUTIONS TO THE DFT GRADIENT=    358115 WORDS.
 STEP CPU TIME =     1.67 TOTAL CPU TIME =          8.7 (      0.1 MIN)
 TOTAL WALL CLOCK TIME=          8.9 SECONDS, CPU UTILIZATION IS    97.97%
 THE COARSE/FINE SCHWARZ SCREENINGS SKIPPED         3208/        3731 BLOCKS.
 THE NUMBER OF GRADIENT INTEGRAL BLOCKS COMPUTED WAS     38091
 ...... END OF 2-ELECTRON GRADIENT ......
 STEP CPU TIME =     0.09 TOTAL CPU TIME =          8.8 (      0.1 MIN)
 TOTAL WALL CLOCK TIME=          9.0 SECONDS, CPU UTILIZATION IS    97.99%

          NSERCH=  0     ENERGY=    -230.0421870

                                 -----------------------
                                 GRADIENT (HARTREE/BOHR)
                                 -----------------------
        ATOM     ZNUC       DE/DX         DE/DY         DE/DZ
 --------------------------------------------------------------
    1  O            8.0     0.0067291     0.0184770     0.0004292
    2  O            8.0    -0.0091590     0.0092156    -0.0092775
    3  C            6.0    -0.0069498    -0.0187125    -0.0021965
    4  C            6.0     0.0029844    -0.0073165    -0.0013936
    5  H            1.0    -0.0009579    -0.0065800    -0.0022186
    6  H            1.0     0.0001531     0.0009556     0.0016562
    7  H            1.0    -0.0013259     0.0005600     0.0004963
    8  H            1.0     0.0044403    -0.0080529     0.0062649
    9  H            1.0     0.0041640     0.0047673     0.0058844
   10  H            1.0    -0.0000782     0.0066865     0.0003552

          MAXIMUM GRADIENT = 0.0187125    RMS GRADIENT = 0.0068505

 NSERCH:   0  E=     -230.0421869873  GRAD. MAX=  0.0187125  R.M.S.=  0.0068505

          FORCE CONSTANT MATRIX NOT UPDATED --- TAKING FIRST STEP
          MIN SEARCH, CORRECT HESSIAN, TRYING PURE NR STEP
               NR STEP HAS LENGTH         =   0.389151
          TRIM/QA LAMBDA FOR NON-TS MODES =  -0.00600444
          TRIM/QA STEP HAS LENGTH         =   0.300000
          RADIUS OF STEP TAKEN=   0.30000  CURRENT TRUST RADIUS=   0.30000

 BEGINNING GEOMETRY SEARCH POINT NSERCH=   1 ...

 COORDINATES OF ALL ATOMS ARE (ANGS)
   ATOM   CHARGE       X              Y              Z
 ------------------------------------------------------------
 O           8.0  -1.3458952724  -0.6452802092  -0.1670556177
 O           8.0   1.4369919550  -0.5902481862   0.1219807943
 C           6.0  -0.6842629120   0.5792620445   0.2513494240
 C           6.0   0.7299683011   0.5841473544  -0.3159065703
 H           1.0  -1.2479704035   1.4794414670   0.0006465859
 H           1.0  -0.6417615665   0.4843663833   1.3433536421
 H           1.0   1.3029092138   1.4470138720   0.0407151032
 H           1.0   0.6466828140   0.6810034049  -1.4109259849
 H           1.0  -1.5501554147  -0.5545282774  -1.1200509942
 H           1.0   0.7947932851  -1.3335778534   0.0201936176

          INTERNUCLEAR DISTANCES (ANGS.)
          ------------------------------

                1 O          2 O          3 C          4 C          5 H     

   1 O       0.0000000    2.7983981 *  1.4533836 *  2.4172005 *  2.1335781 *
   2 O       2.7983981 *  0.0000000    2.4257396 *  1.4390388 *  3.3922500  
   3 C       1.4533836 *  2.4257396 *  0.0000000    1.5237628 *  1.0913025 *
   4 C       2.4172005 *  1.4390388 *  1.5237628 *  0.0000000    2.1940827 *
   5 H       2.1335781 *  3.3922500    1.0913025 *  2.1940827 *  0.0000000  
   6 H       2.0132665 *  2.6396523 *  1.0969434 *  2.1551667 *  1.7777868 *
   7 H       3.3818676    2.0432863 *  2.1785805 *  1.0954355 *  2.5514004 *
   8 H       2.6975191 *  2.1425388 *  2.1318835 *  1.1024450 *  2.4939429 *
   9 H       0.9788556 *  3.2352694    1.9788859 *  2.6724885 *  2.3418607 *
  10 H       2.2564050 *  0.9875823 *  2.4289909 *  1.9480338 *  3.4765419  

                6 H          7 H          8 H          9 H         10 H     

   1 O       2.0132665 *  3.3818676    2.6975191 *  0.9788556 *  2.2564050 *
   2 O       2.6396523 *  2.0432863 *  2.1425388 *  3.2352694    0.9875823 *
   3 C       1.0969434 *  2.1785805 *  2.1318835 *  1.9788859 *  2.4289909 *
   4 C       2.1551667 *  1.0954355 *  1.1024450 *  2.6724885 *  1.9480338 *
   5 H       1.7777868 *  2.5514004 *  2.4939429 *  2.3418607 *  3.4765419  
   6 H       0.0000000    2.5308698 *  3.0470988    2.8236225 *  2.6682135 *
   7 H       2.5308698 *  0.0000000    1.7676728 *  3.6733536    2.8267107 *
   8 H       3.0470988    1.7676728 *  0.0000000    2.5371726 *  2.4755964 *
   9 H       2.8236225 *  3.6733536    2.5371726 *  0.0000000    2.7213711 *
  10 H       2.6682135 *  2.8267107 *  2.4755964 *  2.7213711 *  0.0000000  

  * ... LESS THAN  3.000

 ...... END OF ONE-ELECTRON INTEGRALS ......
 STEP CPU TIME =     0.00 TOTAL CPU TIME =          8.8 (      0.1 MIN)
 TOTAL WALL CLOCK TIME=          9.0 SECONDS, CPU UTILIZATION IS    97.88%
 TOTAL NUMBER OF NONZERO TWO-ELECTRON INTEGRALS =              650513
         44 INTEGRAL RECORDS WERE STORED ON DISK FILE  8.
  ...... END OF TWO-ELECTRON INTEGRALS .....
 STEP CPU TIME =     0.06 TOTAL CPU TIME =          8.8 (      0.1 MIN)
 TOTAL WALL CLOCK TIME=          9.0 SECONDS, CPU UTILIZATION IS    98.00%

          --------------------------
             R-B3LYP SCF CALCULATION
          --------------------------
         DENSITY MATRIX CONVERGENCE THRESHOLD=  5.00E-05
     COARSE -> FINE DFT GRID SWITCH THRESHOLD=  1.50E-03 (SWITCH IN $DFT)
                   HF -> DFT SWITCH THRESHOLD=  5.00E-03 (SWOFF IN $DFT)

 DFT CODE IS SWITCHING FROM THE FINE GRID NRAD= 96,  NLEB=  302
                      TO THE COARSE GRID NRAD0= 24, NLEB0=  110

 ITER EX DEM     TOTAL ENERGY        E CHANGE  DENSITY CHANGE    DIIS ERROR
          * * *   INITIATING DIIS PROCEDURE   * * *
   1  0  0     -230.0386652684  -230.0386652684   0.043143456   0.020605784
   2  1  0     -230.0422213302    -0.0035560619   0.008031797   0.004298715
   3  2  0     -230.0421939018     0.0000274285   0.005395011   0.007047560
   4  3  0     -230.0422948515    -0.0001009497   0.000623387   0.000721027
 DFT CODE IS SWITCHING BACK TO THE FINE GRID
          * * *   INITIATING DIIS PROCEDURE   * * *
   5  4  0     -230.0438937867    -0.0015989352   0.002060814   0.000847951
   6  5  0     -230.0439031924    -0.0000094057   0.000740201   0.000340557
   7  6  0     -230.0439031135     0.0000000789   0.000389905   0.000445079
   8  7  0     -230.0439037918    -0.0000006783   0.000061538   0.000048112
   9  8  0     -230.0439038021    -0.0000000103   0.000018514   0.000016027
  10  9  0     -230.0439038036    -0.0000000016   0.000002153   0.000001381

          -----------------
          DENSITY CONVERGED
          -----------------
     TIME TO FORM FOCK OPERATORS=       5.7 SECONDS (       0.6 SEC/ITER)
     TIME TO SOLVE SCF EQUATIONS=       0.0 SECONDS (       0.0 SEC/ITER)

 FINAL R-B3LYP ENERGY IS     -230.0439038036 AFTER  10 ITERATIONS
[...]
   20  C  3  S    0.002110   0.048885   0.020891  -0.123298   0.094285
   21  C  3  X   -0.128243   0.159349  -0.022248   0.123704  -0.168399
   22  C  3  Y    0.045056  -0.021105  -0.204470  -0.030200  -0.019411
   23  C  3  Z    0.033818  -0.059490  -0.065174   0.038455   0.019465
   24  C  3  S    0.004471   0.099812  -0.225002  -1.213084   0.777908
   25  C  3  X    0.013206   0.051858  -0.065524   0.417552  -0.368165
   26  C  3  Y    0.065355   0.078662  -0.395784  -0.064815  -0.115725
   27  C  3  Z    0.031334  -0.004311  -0.176914   0.028760   0.164810
   28  C  4  S    0.022330  -0.010235   0.013364   0.082010  -0.036413
   29  C  4  S   -0.045221   0.019669  -0.007352  -0.132262   0.035762
   30  C  4  X    0.218557  -0.092939   0.011965  -0.136429  -0.016876
   31  C  4  Y    0.030490   0.019056  -0.082711   0.068684   0.213909
   32  C  4  Z    0.035012   0.150801   0.090968   0.053922  -0.119896
   33  C  4  S   -0.147447   0.086548  -0.253217  -1.135167   0.803810
   34  C  4  X    0.081610  -0.023761   0.006831  -0.475433  -0.101655
   35  C  4  Y   -0.052473  -0.026614  -0.148116   0.152470   0.518748
   36  C  4  Z   -0.065526   0.013567   0.219239   0.129650  -0.377928
   37  H  5  S    0.097374  -0.058299   0.023632  -0.013774  -0.047317
   38  H  5  S    0.101680  -0.124648   0.398970   0.836504  -0.624335
   39  H  6  S    0.023050  -0.032225  -0.014329   0.018818   0.014219
   40  H  6  S    0.006568  -0.087993   0.132028   0.433031  -0.453761
   41  H  7  S    0.102558   0.039171   0.049658   0.000525   0.026026
   42  H  7  S    0.173002   0.047385   0.228036   0.570928  -0.491334
   43  H  8  S   -0.070180  -0.147151  -0.031633   0.024038  -0.046077
   44  H  8  S   -0.081245  -0.215020   0.297409   0.705778  -0.802994
   45  H  9  S    0.003351  -0.011569   0.115620   0.016147   0.097391
   46  H  9  S    0.009539  -0.017572   1.088140   0.261848   0.636729
   47  H 10  S    0.046038  -0.001911   0.035976  -0.116292  -0.085617
   48  H 10  S    0.088890  -0.018521   0.360949  -0.758584  -0.768826

                     21         22         23         24         25
                    0.1335     0.1508     0.1596     0.1929     0.2230
                     A          A          A          A          A   
    1  O  1  S   -0.012527  -0.007158  -0.010015   0.018602  -0.029697
    2  O  1  S    0.036505   0.018637   0.012501  -0.006464   0.047024
    3  O  1  X    0.083681   0.045998   0.070235  -0.068829   0.150336
    4  O  1  Y    0.132924   0.092071   0.123088  -0.220110   0.084753
    5  O  1  Z    0.084308  -0.021921   0.108099  -0.152337   0.145060
    6  O  1  S    0.061587   0.048942   0.111285  -0.378661   0.404400
    7  O  1  X    0.130363   0.010670   0.160285  -0.227649   0.337305
    8  O  1  Y    0.198545   0.134715   0.151520  -0.418440   0.268198
    9  O  1  Z    0.110959  -0.031772   0.257160  -0.262729   0.276005
   10  O  2  S    0.005923   0.009294  -0.007362  -0.002782   0.035546
   11  O  2  S   -0.011772  -0.024987   0.017529   0.004121  -0.030238
   12  O  2  X   -0.004544   0.063356  -0.037861  -0.039629   0.045644
   13  O  2  Y    0.023190  -0.027081   0.252477  -0.151482  -0.328187
   14  O  2  Z   -0.010167  -0.011558  -0.063981  -0.079835   0.070150
   15  O  2  S   -0.053612  -0.043389   0.023780   0.076740  -0.649420
   16  O  2  X   -0.024693   0.038577  -0.051705  -0.096042   0.219501
   17  O  2  Y    0.017036  -0.037417   0.411477  -0.295413  -0.701576
   18  O  2  Z   -0.073181   0.003000  -0.113396  -0.133804   0.121120
   19  C  3  S   -0.037082   0.092018   0.036675  -0.036614   0.079620
   20  C  3  S    0.032971  -0.113293  -0.069172   0.051270  -0.076452
   21  C  3  X    0.106597   0.135243  -0.023613  -0.094015  -0.054370
   22  C  3  Y    0.108801  -0.150590   0.254877  -0.178239   0.238371
   23  C  3  Z    0.286816   0.075828  -0.184823  -0.184740  -0.032220
   24  C  3  S    0.831294  -1.481421  -0.478658   0.396635  -1.266619
   25  C  3  X    0.339501   0.211534  -0.116762  -0.288677  -0.575980
   26  C  3  Y    0.172976  -0.642939   0.608797  -0.708863   1.045517
   27  C  3  Z    0.695498   0.234969  -0.738801  -0.818662  -0.028326
   28  C  4  S    0.014343  -0.099915   0.015913   0.004016  -0.104830
   29  C  4  S    0.002937   0.127234  -0.041834   0.020380   0.113706
   30  C  4  X    0.120229   0.067982   0.024820   0.132124   0.070452
   31  C  4  Y    0.099702   0.129094   0.253362   0.090115  -0.195666
   32  C  4  Z    0.216603  -0.043921   0.044946   0.307377   0.129262
   33  C  4  S   -0.303768   1.644750  -0.066083  -0.144940   1.633392
   34  C  4  X    0.373172   0.091926   0.004717   0.626185  -0.089963
   35  C  4  Y    0.320250   0.635343   0.611138   0.381403  -1.105191
   36  C  4  Z    0.460791  -0.146415   0.300158   0.984329   0.667240
   37  H  5  S    0.021579   0.062949  -0.088004   0.032511   0.018321
   38  H  5  S    0.037986   1.496991  -0.909367   0.000339  -0.602948
   39  H  6  S   -0.103545   0.011188   0.057564   0.049039  -0.048839
   40  H  6  S   -1.387031   0.269670   1.203290   0.605597   0.593262
   41  H  7  S   -0.081014  -0.066119  -0.076340   0.015511   0.027073
   42  H  7  S   -0.863073  -1.248813  -0.801639  -1.047408  -0.160589
   43  H  8  S    0.077930  -0.024345  -0.014664   0.035495   0.049700
   44  H  8  S    0.933475  -0.862564   0.271745   1.212856   0.112844
   45  H  9  S    0.038712   0.025984   0.003165  -0.041216  -0.007981
   46  H  9  S    0.357169  -0.017612   0.296425  -0.552383   0.425899
   47  H 10  S    0.027720   0.011665   0.067214  -0.034028  -0.058004
   48  H 10  S    0.149315   0.105935   0.668361  -0.447959  -0.603035

                     26         27
                    0.2398     0.5409
                     A          A   
    1  O  1  S    0.005735   0.004631
    2  O  1  S   -0.031089  -0.108138
    3  O  1  X    0.032744  -0.181814
    4  O  1  Y   -0.034454  -0.157795
    5  O  1  Z   -0.109844   0.010966
    6  O  1  S    0.042190   0.648907
    7  O  1  X    0.114556   0.087162
    8  O  1  Y   -0.074134   0.218942
    9  O  1  Z   -0.215741   0.077863
   10  O  2  S   -0.009070   0.006034
   11  O  2  S    0.032329  -0.053386
   12  O  2  X    0.086303   0.103326
   13  O  2  Y    0.116954  -0.078251
   14  O  2  Z   -0.053117   0.014434
   15  O  2  S    0.000797   0.216131
   16  O  2  X    0.200305   0.042846
   17  O  2  Y    0.228796   0.088799
   18  O  2  Z   -0.139273  -0.049643
   19  C  3  S    0.068633  -0.021676
   20  C  3  S   -0.037450   0.226455
   21  C  3  X   -0.324078  -0.560328
   22  C  3  Y   -0.070695  -0.572225
   23  C  3  Z    0.187608  -0.073745
   24  C  3  S   -1.485110  -0.771189
   25  C  3  X   -1.587485   0.782052
   26  C  3  Y   -0.005956   0.965618
   27  C  3  Z    0.767329   0.160986
   28  C  4  S   -0.058843  -0.020515
   29  C  4  S    0.014257   0.084724
   30  C  4  X   -0.357674   0.553998
   31  C  4  Y    0.069596  -0.235364
   32  C  4  Z    0.203242  -0.068072
   33  C  4  S    1.385551  -0.294234
   34  C  4  X   -1.653627  -0.853404
   35  C  4  Y   -0.007736   0.109277
   36  C  4  Z    0.669054   0.101959
   37  H  5  S   -0.061625  -0.073436
   38  H  5  S   -0.128902  -0.069077
   39  H  6  S   -0.040041   0.012327
   40  H  6  S   -0.405594   0.021001
   41  H  7  S    0.048710  -0.015871
   42  H  7  S    0.189013   0.033196
   43  H  8  S    0.031372   0.044400
   44  H  8  S    0.389573   0.028029
   45  H  9  S   -0.045460  -0.072686
   46  H  9  S   -0.232143   0.162869
   47  H 10  S   -0.012131  -0.039427
   48  H 10  S    0.348833   0.155315

     ---------------------------------------------------------------------
     PROPERTIES FOR THE B3LYP    DFT FUNCTIONAL (RHF  TYPE) DENSITY MATRIX
     ---------------------------------------------------------------------

          -----------------
          ENERGY COMPONENTS
          -----------------

         WAVEFUNCTION NORMALIZATION =       1.0000000000

                ONE ELECTRON ENERGY =    -575.0615061822
                TWO ELECTRON ENERGY =     213.1271520268
           NUCLEAR REPULSION ENERGY =     131.8890007813
                                      ------------------
                       TOTAL ENERGY =    -230.0453533741

 ELECTRON-ELECTRON POTENTIAL ENERGY =     213.1271520268
  NUCLEUS-ELECTRON POTENTIAL ENERGY =    -803.9730466900
   NUCLEUS-NUCLEUS POTENTIAL ENERGY =     131.8890007813
                                      ------------------
             TOTAL POTENTIAL ENERGY =    -458.9568938819
               TOTAL KINETIC ENERGY =     228.9115405078
                 VIRIAL RATIO (V/T) =       2.0049530612

          ---------------------------------------
          MULLIKEN AND LOWDIN POPULATION ANALYSES
          ---------------------------------------

     ATOMIC MULLIKEN POPULATION IN EACH MOLECULAR ORBITAL

                      1          2          3          4          5

                  2.000000   2.000000   2.000000   2.000000   2.000000

    1             1.998557  -0.000000   0.000530   0.000003   1.300806
    2            -0.000000   1.998407   0.000005   0.000509   0.300429
    3             0.001072  -0.000001   1.994957   0.002161   0.188908
    4             0.000007   0.001179   0.002180   1.995001   0.071768
    5            -0.000012   0.000000   0.001041   0.000011   0.003090
    6            -0.000018  -0.000001   0.001213   0.000007   0.007681
    7             0.000000  -0.000009   0.000011   0.001151   0.001202
    8            -0.000002  -0.000011   0.000011   0.001115   0.003179
    9             0.000386  -0.000000   0.000045  -0.000001   0.100178
   10             0.000010   0.000436   0.000008   0.000041   0.022760

                      6          7          8          9         10

                  2.000000   2.000000   2.000000   2.000000   2.000000

    1             0.356877   0.164872   0.243458   0.555291   0.246746
    2             1.332986   0.148027   0.209405   0.270245   0.354171
    3             0.020114   0.743972   0.445646   0.515527   0.389306
    4             0.155451   0.621275   0.550756   0.175012   0.500293
    5             0.000633   0.069931   0.067664   0.211450   0.069955
    6             0.000260   0.065916   0.104464   0.010546   0.101136
    7             0.005988   0.059096   0.120650   0.002730   0.050750
    8             0.001337   0.048614   0.115688   0.016219   0.142712
    9             0.032744   0.043262   0.078868   0.172995   0.047669
   10             0.093612   0.035036   0.063400   0.069984   0.097263

                     11         12         13         14         15

                  2.000000   2.000000   2.000000   2.000000   2.000000

    1             0.293776   0.288571   0.249947   1.099999   0.356360
    2             0.244824   0.403375   0.242032   0.133417   1.242570
    3             0.658694   0.152173   0.443936   0.244894   0.113814
    4             0.425245   0.655528   0.439697   0.050494   0.119155
    5             0.144166   0.002791   0.002225   0.203983   0.002056
    6             0.050034   0.021877   0.290545   0.147381   0.001562
    7             0.010279   0.289557   0.141566   0.009195   0.064879
    8             0.105100   0.053241   0.168632   0.026587   0.021375
    9             0.023352   0.031570   0.021393   0.083175   0.003243
   10             0.044529   0.101317   0.000028   0.000876   0.074987

                     16         17

                  2.000000   2.000000

    1             1.303874   0.146892
    2             0.267524   1.460035
    3             0.064236   0.092187
    4             0.168491   0.084381
    5             0.058130   0.032426
    6             0.002350   0.017854
    7             0.083147   0.007628
    8             0.025230   0.155668
    9             0.000020   0.001631
   10             0.026997   0.001298

               ----- POPULATIONS IN EACH AO -----
                             MULLIKEN      LOWDIN
              1  O  1  S      1.99717     1.99368
              2  O  1  S      0.90705     0.88553
              3  O  1  X      1.07393     1.04245
              4  O  1  Y      0.93147     0.89193
              5  O  1  Z      0.89073     0.83015
              6  O  1  S      1.00908     0.74792
              7  O  1  X      0.70406     0.74645
              8  O  1  Y      0.59537     0.68746
              9  O  1  Z      0.49770     0.60579
             10  O  2  S      1.99718     1.99365
             11  O  2  S      0.90559     0.88211
             12  O  2  X      0.97284     0.93153
             13  O  2  Y      0.79909     0.73819
             14  O  2  Z      1.13044     1.10336
             15  O  2  S      1.01275     0.74118
             16  O  2  X      0.63329     0.70462
             17  O  2  Y      0.40839     0.53541
             18  O  2  Z      0.74838     0.79858
             19  C  3  S      1.99683     1.98707
             20  C  3  S      0.68467     0.56846
             21  C  3  X      0.70052     0.64510
             22  C  3  Y      0.61894     0.55734
             23  C  3  Z      0.74416     0.67336
             24  C  3  S      0.59583     0.42843
             25  C  3  X      0.20970     0.38817
             26  C  3  Y      0.17710     0.36406
             27  C  3  Z      0.34384     0.44913
             28  C  4  S      1.99679     1.98692
             29  C  4  S      0.68468     0.56610
             30  C  4  X      0.70156     0.64413
             31  C  4  Y      0.63852     0.58430
             32  C  4  Z      0.73182     0.65141
             33  C  4  S      0.57174     0.42451
             34  C  4  X      0.19102     0.38485
             35  C  4  Y      0.20820     0.36450
             36  C  4  Z      0.29159     0.44847
             37  H  5  S      0.54306     0.52496
             38  H  5  S      0.32648     0.37811
             39  H  6  S      0.53989     0.52229
             40  H  6  S      0.28292     0.35634
             41  H  7  S      0.54205     0.52257
             42  H  7  S      0.30578     0.36386
             43  H  8  S      0.54429     0.52998
             44  H  8  S      0.34040     0.38759
             45  H  9  S      0.50899     0.47589
             46  H  9  S      0.13154     0.24307
             47  H 10  S      0.49973     0.46841
             48  H 10  S      0.13285     0.25063

          ----- MULLIKEN ATOMIC OVERLAP POPULATIONS -----
          (OFF-DIAGONAL ELEMENTS NEED TO BE MULTIPLIED BY 2)

             1           2           3           4           5

    1    8.2817704
    2   -0.0092814   8.2722516
    3    0.2188511  -0.0493931   5.0603285
    4   -0.0635839   0.2439985   0.2689710   5.0142528
    5   -0.0373976   0.0038378   0.3259449  -0.0389231   0.6552854
    6   -0.0424967   0.0013263   0.3721661  -0.0466316  -0.0362519
    7    0.0039013  -0.0412942  -0.0283870   0.3470958   0.0026985
    8   -0.0029041  -0.0491647  -0.0491843   0.3398002   0.0001139
    9    0.2295928   0.0003096  -0.0361600  -0.0001624  -0.0068868
   10    0.0281072   0.2353707  -0.0115418  -0.0489063   0.0011211

             6           7           8           9          10

    6    0.5664761
    7   -0.0039776   0.6098567
    8    0.0066112  -0.0495606   0.6867994
    9    0.0068670  -0.0000719   0.0038714   0.4442221
   10   -0.0012848   0.0075597  -0.0016871  -0.0010528   0.4248963

          TOTAL MULLIKEN AND LOWDIN ATOMIC POPULATIONS
       ATOM         MULL.POP.    CHARGE          LOW.POP.     CHARGE
    1 O             8.606559   -0.606559         8.431369   -0.431369
    2 O             8.607961   -0.607961         8.428631   -0.428631
    3 C             6.071596   -0.071596         6.061118   -0.061118
    4 C             6.015911   -0.015911         6.055190   -0.055190
    5 H             0.869542    0.130458         0.903065    0.096935
    6 H             0.822804    0.177196         0.878634    0.121366
    7 H             0.847821    0.152179         0.886428    0.113572
    8 H             0.884695    0.115305         0.917571    0.082429
    9 H             0.640529    0.359471         0.718955    0.281045
   10 H             0.632582    0.367418         0.719039    0.280961

          -------------------------------
          BOND ORDER AND VALENCE ANALYSIS     BOND ORDER THRESHOLD=0.050
          -------------------------------

                   BOND                       BOND                       BOND
  ATOM PAIR DIST  ORDER      ATOM PAIR DIST  ORDER      ATOM PAIR DIST  ORDER
    1   3  1.467  0.875        1   9  0.980  0.805        1  10  2.278  0.051
    2   4  1.448  0.910        2  10  0.983  0.777        3   4  1.523  0.925
    3   5  1.098  0.922        3   6  1.092  0.934        4   7  1.094  0.929
    4   8  1.104  0.921

                       TOTAL       BONDED        FREE
      ATOM            VALENCE     VALENCE     VALENCE
    1 O                 1.753       1.753       0.000
    2 O                 1.738       1.738       0.000
    3 C                 3.667       3.667       0.000
    4 C                 3.679       3.679      -0.000
    5 H                 0.930       0.930       0.000
    6 H                 0.926       0.926       0.000
    7 H                 0.930       0.930       0.000
    8 H                 0.929       0.929       0.000
    9 H                 0.829       0.829      -0.000
   10 H                 0.843       0.843       0.000

          ---------------------
          ELECTROSTATIC MOMENTS
          ---------------------

 POINT   1           X           Y           Z (BOHR)    CHARGE
                 0.046297   -0.112306   -0.089569        0.00 (A.U.)
         DX          DY          DZ         /D/  (DEBYE)
    -1.826674    1.704221   -1.682736    3.012093
 ...... END OF PROPERTY EVALUATION ......
 STEP CPU TIME =     0.01 TOTAL CPU TIME =        125.7 (      2.1 MIN)
 TOTAL WALL CLOCK TIME=        127.9 SECONDS, CPU UTILIZATION IS    98.33%
  $VIB   
          IVIB=   0 IATOM=   0 ICOORD=   0 E=     -230.0453533741
  3.695032846E-07-1.921670917E-06 2.639534106E-06-6.317531131E-06-5.641802880E-06
  3.619837786E-06 5.779056138E-05 3.258894848E-05-2.618501981E-05-3.546419157E-05
 -1.489055039E-06 2.326390091E-05-9.225616524E-07-8.340089552E-06-1.070847598E-05
  1.056898682E-05-1.755067468E-05-8.129010731E-07-7.699376558E-06 4.392168254E-06
  1.013813048E-05-1.428252058E-05-7.685064144E-06 1.083008709E-06-5.084345576E-06
 -9.474681666E-07-9.006561867E-07 1.041475578E-06 6.594708647E-06-2.137358946E-06
 -1.826673673E+00 1.704221438E+00-1.682735726E+00
 ......END OF GEOMETRY SEARCH......
 STEP CPU TIME =     0.01 TOTAL CPU TIME =        125.8 (      2.1 MIN)
 TOTAL WALL CLOCK TIME=        127.9 SECONDS, CPU UTILIZATION IS    98.34%
               580000  WORDS OF DYNAMIC MEMORY USED
 EXECUTION OF GAMESS TERMINATED NORMALLY Sat Feb  8 21:40:14 2020
 DDI: 263640 bytes (0.3 MB / 0 MWords) used by master data server.

 ----------------------------------------
 CPU timing information for all processes
 ========================================
 0: 124.943 + 0.811 = 125.754
 1: 0.01 + 0.03 = 0.05
 ----------------------------------------
 ddikick.x: exited gracefully.
unset echo
----- accounting info -----
Files used on the master node vusals-mbp were:
-rw-r--r--@ 1 wurthel  staff      689 Feb  8 21:38 .//Ethylene_glycol.F05
-rw-r--r--  1 wurthel  staff  7920704 Feb  8 21:40 .//Ethylene_glycol.F08
-rw-r--r--  1 wurthel  staff  1603280 Feb  8 21:40 .//Ethylene_glycol.F10
-rw-r--r--  1 wurthel  staff  2766720 Feb  8 21:40 .//Ethylene_glycol.F22
-rw-r--r--  1 wurthel  staff   308761 Feb  8 21:40 .//Ethylene_glycol.dat
-rw-r--r--@ 1 wurthel  staff      689 Feb  8 21:36 .//Ethylene_glycol.inp
-rw-r--r--  1 wurthel  staff   211894 Feb  8 21:40 .//Ethylene_glycol.log
ls: No match.
ls: No match.
ls: No match.
Sat Feb  8 21:40:17 MSK 2020
125.011u 0.890s 2:11.09 96.0%	0+0k 0+0io 654pf+0w
